7.239973362004765711e+00 1.690804381687157855e-21 0.000000000000000000e+00 -3.620001888929994305e+00 6.269990881986677422e+00 -8.271806125530276749e-25 1.135941098040546175e-07 8.058948484832464930e-08 9.064786479000000341e+00
7.421952243999999865e+00 0.000000000000000000e+00 0.000000000000000000e+00 -3.544789183999999871e+00 6.228581807000000303e+00 0.000000000000000000e+00 -2.490387400000000084e-01 2.585741630000000235e-01 8.796426552999999871e+00
7.239616636000000049e+00 0.000000000000000000e+00 0.000000000000000000e+00 -3.447593621000000219e+00 6.167758522999999826e+00 0.000000000000000000e+00 2.391848520000000033e-01 -1.209346899999999975e-01 9.039015644999999211e+00
7.041583415999999929e+00 0.000000000000000000e+00 0.000000000000000000e+00 -3.594981602999999915e+00 6.358350353999999705e+00 0.000000000000000000e+00 9.598436800000000046e-02 7.942346000000000128e-02 9.216467025000000035e+00
7.262001660000000136e+00 0.000000000000000000e+00 0.000000000000000000e+00 -3.679147207000000197e+00 6.389991127000000048e+00 0.000000000000000000e+00 2.576018440000000242e-01 -2.052361719999999945e-01 8.991059934000000808e+00
7.256528602999999578e+00 0.000000000000000000e+00 0.000000000000000000e+00 -3.589325928000000054e+00 6.289385303000000427e+00 0.000000000000000000e+00 -2.468636230000000042e-01 -5.382776400000000017e-02 9.169371421999999328e+00
7.396540408999999983e+00 0.000000000000000000e+00 0.000000000000000000e+00 -3.876493190000000144e+00 6.253785544000000307e+00 0.000000000000000000e+00 -5.260861399999999799e-02 1.752737819999999891e-01 8.893139017999999396e+00
7.142176822999999786e+00 0.000000000000000000e+00 0.000000000000000000e+00 -3.501233458999999826e+00 6.148744329000000342e+00 0.000000000000000000e+00 -8.642756899999999576e-02 -1.059387019999999957e-01 9.071586061999999728e+00
7.337900227000000442e+00 0.000000000000000000e+00 0.000000000000000000e+00 -3.623462551999999892e+00 6.251531246999999958e+00 0.000000000000000000e+00 -1.174085829999999969e-01 -9.474668299999999821e-02 9.283856614999999479e+00
7.090780923999999708e+00 0.000000000000000000e+00 0.000000000000000000e+00 -3.491165513999999970e+00 6.438017535000000180e+00 0.000000000000000000e+00 2.081535200000000085e-01 -1.214511699999999972e-01 9.012193669000000185e+00
7.115927832999999758e+00 0.000000000000000000e+00 0.000000000000000000e+00 -3.510295285999999848e+00 6.125541769999999886e+00 0.000000000000000000e+00 1.044395500000000060e-01 1.935276079999999899e-01 9.046496059000000756e+00
