1.809988827902442976e+00 1.045002094656453551e+00 4.258989984166664300e+00 1.809988856699501936e+00 1.045002113451150461e+00 8.791379984166665551e+00 -1.476955392697611818e-05 4.179990017646748157e+00 4.258989982666712137e+00 -1.474075686798496876e-05 4.179990036441444623e+00 8.791379982666713389e+00 5.429978827911534189e+00 1.044996248660262195e+00 4.258989961166667726e+00 5.429978856708593149e+00 1.044996267454959105e+00 8.791379961166667201e+00 3.619975230443689185e+00 4.179994171650556645e+00 4.258989959666673819e+00 3.619975259240748144e+00 4.179994190445253111e+00 8.791379959666674182e+00 -2.385651271956797230e-06 2.090000008262229869e+00 1.992789991333303812e+00 -2.356854149429502721e-06 2.090000027056968079e+00 6.525189991333304462e+00 -1.810005983107642047e+00 5.224987931252524476e+00 1.992789989833351871e+00 -1.810005954310519583e+00 5.224987950047262686e+00 6.525189989833352300e+00 3.619987614357819350e+00 2.089994162266038291e+00 1.992789968333307016e+00 3.619987643154941814e+00 2.089994181060776501e+00 6.525189968333307000e+00 1.809984016889974123e+00 5.224992085256332963e+00 1.992789966833313553e+00 1.809984045687096588e+00 5.224992104051071173e+00 6.525189966833313981e+00 1.809988813522434237e+00 1.045002085271192982e+00 1.995709984166664563e+00 1.809988842319556923e+00 1.045002104065931192e+00 6.528109984166664326e+00 -1.478393393568531741e-05 4.179990008261487588e+00 1.995709982666712623e+00 -1.475513681315802332e-05 4.179990027056225799e+00 6.528109982666712163e+00 5.429978813531525006e+00 1.044996239275001626e+00 1.995709961166667767e+00 5.429978842328647914e+00 1.044996258069739836e+00 6.528109961166667752e+00 3.619975216063680445e+00 4.179994162265296076e+00 1.995709959666674305e+00 3.619975244860802910e+00 4.179994181060034286e+00 6.528109959666673845e+00 -2.371234158138701943e-06 2.090000017671707511e+00 4.261909991333304504e+00 -2.342437099147552943e-06 2.090000036466404421e+00 8.794299991333303979e+00 -1.810005968690528100e+00 5.224987940662002117e+00 4.261909989833352341e+00 -1.810005939893469140e+00 5.224987959456698583e+00 8.794299989833351816e+00 3.619977628774933009e+00 2.089994171664040667e+00 4.261909968333370990e+00 3.619977657571991969e+00 2.089994190458737577e+00 8.794299968333369577e+00 1.809984031307088070e+00 5.224992094665810605e+00 4.261909966833314023e+00 1.809984060104147030e+00 5.224992113460507070e+00 8.794299966833312610e+00
1.758920000000000039e+00 1.151180000000000092e+00 4.142070000000000363e+00 1.642330000000000068e+00 1.289260000000000073e+00 8.529680000000000817e+00 -1.437000000000000083e-02 4.266180000000000305e+00 4.139129999999999754e+00 -1.315600000000000103e-01 4.403550000000000075e+00 8.530559999999999476e+00 5.477280000000000371e+00 1.158670000000000089e+00 4.135110000000000063e+00 5.351440000000000197e+00 1.286720000000000086e+00 8.528639999999999333e+00 3.705259999999999998e+00 4.262900000000000134e+00 4.119819999999999816e+00 3.573920000000000208e+00 4.408000000000000362e+00 8.536350000000000549e+00 1.205999999999999954e-02 2.136470000000000091e+00 1.921729999999999938e+00 -1.208999999999999936e-01 2.267479999999999940e+00 6.331380000000000230e+00 -1.778219999999999912e+00 5.251509999999999678e+00 1.941880000000000051e+00 -1.902719999999999967e+00 5.369640000000000413e+00 6.340010000000000367e+00 3.713270000000000071e+00 2.133449999999999847e+00 1.940490000000000048e+00 3.590840000000000032e+00 2.265050000000000008e+00 6.328949999999999854e+00 1.940209999999999990e+00 5.249130000000000074e+00 1.933750000000000080e+00 1.817569999999999908e+00 5.359329999999999927e+00 6.323210000000000441e+00 1.828230000000000022e+00 1.097229999999999928e+00 1.934679999999999955e+00 1.702329999999999899e+00 1.220669999999999922e+00 6.338680000000000092e+00 5.902000000000000302e-02 4.219050000000000189e+00 1.928169999999999940e+00 -6.532999999999999918e-02 4.335460000000000313e+00 6.341849999999999987e+00 5.528050000000000352e+00 1.107390000000000096e+00 1.928490000000000038e+00 5.413840000000000430e+00 1.220590000000000064e+00 6.339199999999999946e+00 3.759180000000000188e+00 4.201839999999999797e+00 1.926469999999999905e+00 3.638450000000000184e+00 4.330350000000000144e+00 6.331089999999999662e+00 -6.715000000000000135e-02 2.192299999999999915e+00 4.143080000000000318e+00 -1.837600000000000067e-01 2.325950000000000184e+00 8.531370000000000786e+00 -1.845250000000000057e+00 5.324440000000000062e+00 4.138250000000000206e+00 -1.975379999999999914e+00 5.444440000000000168e+00 8.542500000000000426e+00 3.649900000000000144e+00 2.199539999999999829e+00 4.135699999999999932e+00 3.513529999999999820e+00 2.318119999999999958e+00 8.533910000000000551e+00 1.859439999999999982e+00 5.311480000000000423e+00 4.134699999999999598e+00 1.748639999999999972e+00 5.453050000000000175e+00 8.532439999999999358e+00
1.941170000000000062e+00 9.793399999999999883e-01 4.250110000000000277e+00 2.077799999999999869e+00 9.214999999999999858e-01 8.759380000000000166e+00 2.266400000000000081e-01 4.044120000000000381e+00 4.258560000000000123e+00 3.455500000000000238e-01 3.997549999999999937e+00 8.771029999999999660e+00 5.572339999999999627e+00 9.775300000000000100e-01 4.254559999999999675e+00 5.689160000000000217e+00 9.027600000000000069e-01 8.767350000000000421e+00 3.856689999999999952e+00 4.049990000000000201e+00 4.249139999999999695e+00 3.971229999999999816e+00 4.003040000000000376e+00 8.764079999999999870e+00 1.058599999999999958e-01 2.029659999999999798e+00 1.975989999999999913e+00 2.275099999999999900e-01 1.967999999999999972e+00 6.504959999999999631e+00 -1.622300000000000075e+00 5.128219999999999779e+00 1.989100000000000090e+00 -1.500199999999999978e+00 5.054990000000000094e+00 6.501070000000000348e+00 3.728450000000000042e+00 2.037049999999999805e+00 1.980979999999999963e+00 3.843700000000000117e+00 1.979859999999999953e+00 6.514639999999999986e+00 1.999360000000000026e+00 5.120040000000000369e+00 1.992220000000000102e+00 2.114970000000000017e+00 5.037700000000000067e+00 6.502519999999999634e+00 1.884419999999999984e+00 9.958799999999999875e-01 1.986990000000000034e+00 2.005780000000000118e+00 9.367799999999999461e-01 6.510150000000000325e+00 1.759199999999999930e-01 4.085079999999999600e+00 1.993249999999999966e+00 2.867199999999999749e-01 4.017629999999999590e+00 6.518360000000000376e+00 5.523170000000000357e+00 1.007470000000000088e+00 1.975810000000000066e+00 5.629360000000000142e+00 9.483700000000000463e-01 6.504380000000000273e+00 3.793759999999999799e+00 4.079939999999999678e+00 1.991570000000000062e+00 3.905819999999999848e+00 4.029359999999999609e+00 6.503599999999999604e+00 1.690599999999999881e-01 1.994259999999999922e+00 4.245250000000000412e+00 2.948700000000000210e-01 1.937710000000000043e+00 8.772610000000000241e+00 -1.544810000000000016e+00 5.080530000000000435e+00 4.260030000000000427e+00 -1.434469999999999912e+00 5.022420000000000329e+00 8.769339999999999691e+00 3.778319999999999901e+00 1.987710000000000088e+00 4.239040000000000141e+00 3.919399999999999995e+00 1.946579999999999977e+00 8.777010000000000645e+00 2.052810000000000024e+00 5.083359999999999879e+00 4.259310000000000151e+00 2.197270000000000056e+00 5.011519999999999975e+00 8.765959999999999752e+00
1.792729999999999935e+00 1.094019999999999992e+00 4.327320000000000277e+00 1.833479999999999999e+00 1.147599999999999953e+00 8.940089999999999648e+00 5.619999999999999996e-03 4.267229999999999634e+00 4.319449999999999790e+00 3.998999999999999777e-02 4.326959999999999695e+00 8.930590000000000472e+00 5.317770000000000330e+00 1.095750000000000002e+00 4.328649999999999665e+00 5.371570000000000178e+00 1.138400000000000079e+00 8.927270000000000039e+00 3.516199999999999992e+00 4.277370000000000339e+00 4.330289999999999750e+00 3.564270000000000049e+00 4.315839999999999677e+00 8.938610000000000610e+00 -7.150000000000000105e-03 2.142110000000000181e+00 2.026969999999999938e+00 4.308000000000000024e-02 2.180410000000000181e+00 6.637480000000000047e+00 -1.787400000000000100e+00 5.309190000000000076e+00 2.037279999999999980e+00 -1.749079999999999968e+00 5.360970000000000013e+00 6.630080000000000418e+00 3.522440000000000015e+00 2.138180000000000192e+00 2.018029999999999990e+00 3.568420000000000147e+00 2.171710000000000029e+00 6.631719999999999615e+00 1.718490000000000073e+00 5.320649999999999658e+00 2.020900000000000141e+00 1.772459999999999924e+00 5.373739999999999739e+00 6.634310000000000151e+00 1.759679999999999911e+00 1.069679999999999964e+00 2.038400000000000212e+00 1.824270000000000058e+00 1.120170000000000110e+00 6.638399999999999856e+00 -2.459000000000000075e-02 4.255779999999999674e+00 2.032599999999999962e+00 2.268999999999999836e-02 4.287359999999999616e+00 6.625519999999999854e+00 5.281229999999999869e+00 1.086619999999999919e+00 2.029510000000000147e+00 5.343779999999999752e+00 1.122489999999999988e+00 6.642220000000000013e+00 3.486369999999999969e+00 4.255620000000000402e+00 2.023390000000000022e+00 3.538870000000000182e+00 4.293020000000000280e+00 6.637150000000000105e+00 1.132000000000000020e-02 2.164480000000000182e+00 4.336719999999999686e+00 7.381000000000000061e-02 2.201150000000000162e+00 8.939709999999999823e+00 -1.772399999999999975e+00 5.320190000000000197e+00 4.336689999999999934e+00 -1.723880000000000079e+00 5.382270000000000110e+00 8.932000000000000384e+00 3.535480000000000178e+00 2.141999999999999904e+00 4.332469999999999821e+00 3.589970000000000105e+00 2.191609999999999836e+00 8.948430000000000106e+00 1.750750000000000028e+00 5.334109999999999907e+00 4.325680000000000192e+00 1.792329999999999979e+00 5.370619999999999727e+00 8.944670000000000343e+00
1.926090000000000080e+00 9.706700000000000328e-01 4.226090000000000124e+00 2.053580000000000183e+00 8.696800000000000086e-01 8.724520000000000053e+00 9.137000000000000677e-02 4.172469999999999679e+00 4.226340000000000430e+00 2.082400000000000084e-01 4.052290000000000170e+00 8.726599999999999469e+00 5.560069999999999624e+00 9.684500000000000330e-01 4.224350000000000271e+00 5.692309999999999981e+00 8.655599999999999961e-01 8.717320000000000846e+00 3.728479999999999794e+00 4.151419999999999888e+00 4.235439999999999650e+00 3.836959999999999926e+00 4.062170000000000059e+00 8.730059999999999931e+00 4.023999999999999799e-02 2.084480000000000111e+00 1.976720000000000033e+00 1.640800000000000036e-01 1.989190000000000014e+00 6.487829999999999764e+00 -1.800980000000000025e+00 5.276049999999999685e+00 1.995819999999999927e+00 -1.670739999999999892e+00 5.176510000000000389e+00 6.471960000000000157e+00 3.671759999999999913e+00 2.084719999999999906e+00 1.976660000000000084e+00 3.797219999999999818e+00 1.983919999999999906e+00 6.472450000000000259e+00 1.821690000000000031e+00 5.278389999999999915e+00 1.984960000000000058e+00 1.966609999999999969e+00 5.190610000000000390e+00 6.478659999999999641e+00 1.851560000000000095e+00 1.017609999999999904e+00 1.979749999999999899e+00 1.990799999999999903e+00 9.239800000000000235e-01 6.487680000000000113e+00 3.570000000000000256e-02 4.199160000000000004e+00 1.983440000000000092e+00 1.526500000000000079e-01 4.111650000000000027e+00 6.474359999999999893e+00 5.507570000000000299e+00 1.028569999999999984e+00 1.969170000000000087e+00 5.631339999999999790e+00 9.242799999999999905e-01 6.478119999999999656e+00 3.657389999999999919e+00 4.210469999999999935e+00 1.985160000000000036e+00 3.783929999999999794e+00 4.113039999999999807e+00 6.471309999999999896e+00 1.040200000000000014e-01 2.023280000000000189e+00 4.230039999999999800e+00 2.268000000000000016e-01 1.927189999999999959e+00 8.719350000000000378e+00 -1.734620000000000051e+00 5.228720000000000034e+00 4.227179999999999715e+00 -1.594710000000000072e+00 5.133680000000000021e+00 8.731419999999999959e+00 3.741169999999999884e+00 2.029389999999999805e+00 4.221650000000000347e+00 3.867109999999999825e+00 1.933419999999999916e+00 8.728239999999999554e+00 1.886749999999999927e+00 5.226919999999999789e+00 4.232649999999999579e+00 2.021119999999999806e+00 5.128260000000000041e+00 8.709279999999999688e+00
1.690299999999999914e+00 1.019579999999999931e+00 4.320280000000000342e+00 1.581280000000000019e+00 9.971400000000000263e-01 8.893660000000000565e+00 -8.626000000000000334e-02 4.165969999999999729e+00 4.310909999999999798e+00 -2.037799999999999889e-01 4.130550000000000388e+00 8.882630000000000692e+00 5.332980000000000054e+00 1.025649999999999951e+00 4.305259999999999643e+00 5.199869999999999770e+00 9.954699999999999660e-01 8.889760000000000773e+00 3.541599999999999859e+00 4.161039999999999850e+00 4.307809999999999917e+00 3.406699999999999839e+00 4.136449999999999960e+00 8.896810000000000329e+00 -3.690000000000000224e-02 2.097579999999999778e+00 2.002429999999999932e+00 -1.605000000000000038e-01 2.042819999999999858e+00 6.609499999999999709e+00 -1.844500000000000028e+00 5.236320000000000086e+00 2.011620000000000186e+00 -1.960050000000000070e+00 5.201740000000000030e+00 6.603130000000000166e+00 3.579489999999999839e+00 2.092909999999999826e+00 2.025879999999999903e+00 3.459080000000000155e+00 2.063050000000000050e+00 6.604930000000000412e+00 1.790399999999999991e+00 5.227030000000000065e+00 2.018369999999999997e+00 1.668409999999999949e+00 5.203289999999999971e+00 6.597579999999999778e+00 1.769889999999999963e+00 1.036429999999999962e+00 2.019519999999999982e+00 1.644640000000000102e+00 1.007689999999999975e+00 6.601230000000000153e+00 -2.231999999999999956e-02 4.175880000000000258e+00 2.021329999999999849e+00 -1.447199999999999875e-01 4.147070000000000256e+00 6.603749999999999787e+00 5.380899999999999572e+00 1.029600000000000071e+00 2.030609999999999804e+00 5.263110000000000177e+00 1.001470000000000082e+00 6.595769999999999911e+00 3.610079999999999956e+00 4.174669999999999881e+00 2.029999999999999805e+00 3.472339999999999982e+00 4.151290000000000369e+00 6.616399999999999615e+00 -1.020599999999999979e-01 2.079919999999999991e+00 4.312820000000000320e+00 -2.265099999999999891e-01 2.043759999999999799e+00 8.894750000000000156e+00 -1.897019999999999929e+00 5.218379999999999797e+00 4.312619999999999898e+00 -2.032900000000000151e+00 5.177380000000000315e+00 8.903320000000000789e+00 3.515470000000000095e+00 2.073519999999999808e+00 4.300889999999999880e+00 3.394559999999999800e+00 2.035590000000000011e+00 8.896580000000000155e+00 1.737540000000000084e+00 5.214669999999999916e+00 4.306140000000000079e+00 1.617220000000000102e+00 5.174509999999999721e+00 8.890589999999999549e+00
1.785169999999999924e+00 1.132439999999999891e+00 4.184120000000000061e+00 1.771490000000000009e+00 1.207829999999999959e+00 8.622379999999999711e+00 -1.457199999999999884e-01 4.255499999999999616e+00 4.177740000000000009e+00 -1.729900000000000049e-01 4.343589999999999840e+00 8.613839999999999719e+00 5.500289999999999679e+00 1.128360000000000030e+00 4.173250000000000348e+00 5.459800000000000431e+00 1.224169999999999980e+00 8.615099999999999980e+00 3.557620000000000005e+00 4.247799999999999798e+00 4.178700000000000081e+00 3.532319999999999904e+00 4.336199999999999832e+00 8.629590000000000316e+00 -7.294000000000000483e-02 2.124169999999999892e+00 1.957060000000000022e+00 -8.973000000000000420e-02 2.203059999999999796e+00 6.394389999999999574e+00 -1.997100000000000097e+00 5.260369999999999990e+00 1.943659999999999943e+00 -2.047359999999999847e+00 5.336780000000000079e+00 6.396519999999999762e+00 3.628390000000000004e+00 2.122650000000000148e+00 1.952760000000000051e+00 3.596350000000000158e+00 2.205499999999999794e+00 6.411179999999999879e+00 1.675799999999999956e+00 5.249509999999999899e+00 1.949859999999999927e+00 1.666479999999999961e+00 5.347400000000000375e+00 6.387509999999999799e+00 1.794200000000000017e+00 1.080330000000000013e+00 1.964650000000000007e+00 1.777989999999999959e+00 1.176109999999999989e+00 6.398299999999999876e+00 -1.342399999999999982e-01 4.212679999999999758e+00 1.950970000000000093e+00 -1.564899999999999902e-01 4.293339999999999712e+00 6.404130000000000322e+00 5.508169999999999789e+00 1.092209999999999903e+00 1.960579999999999989e+00 5.477030000000000065e+00 1.161589999999999900e+00 6.404659999999999798e+00 3.563639999999999919e+00 4.202799999999999869e+00 1.954190000000000094e+00 3.548430000000000195e+00 4.285020000000000273e+00 6.394730000000000025e+00 -8.464000000000000690e-02 2.162399999999999878e+00 4.183959999999999901e+00 -1.132800000000000057e-01 2.257540000000000102e+00 8.631069999999999354e+00 -2.016729999999999912e+00 5.295560000000000045e+00 4.180780000000000385e+00 -2.047400000000000109e+00 5.381129999999999747e+00 8.626549999999999940e+00 3.606730000000000214e+00 2.159269999999999801e+00 4.189790000000000347e+00 3.582969999999999988e+00 2.258010000000000073e+00 8.636459999999999582e+00 1.684430000000000094e+00 5.290199999999999569e+00 4.177279999999999660e+00 1.649559999999999915e+00 5.381770000000000387e+00 8.628000000000000114e+00
1.762750000000000039e+00 9.709600000000000453e-01 4.262609999999999566e+00 1.700269999999999948e+00 9.100000000000000311e-01 8.806990000000000762e+00 1.217999999999999985e-02 4.050959999999999894e+00 4.250919999999999810e+00 -2.915999999999999842e-02 3.987289999999999779e+00 8.794650000000000745e+00 5.334970000000000212e+00 9.814300000000000246e-01 4.270270000000000010e+00 5.271080000000000432e+00 9.211399999999999588e-01 8.786939999999999529e+00 3.592610000000000081e+00 4.055640000000000356e+00 4.258090000000000153e+00 3.534100000000000019e+00 3.996529999999999916e+00 8.798049999999999926e+00 4.760000000000000342e-03 2.027340000000000142e+00 1.994250000000000078e+00 -3.910000000000000281e-02 1.972800000000000109e+00 6.531240000000000379e+00 -1.745649999999999924e+00 5.104440000000000310e+00 1.987500000000000044e+00 -1.790329999999999977e+00 5.049920000000000186e+00 6.534139999999999837e+00 3.566429999999999989e+00 2.020519999999999872e+00 1.981230000000000047e+00 3.528519999999999879e+00 1.989559999999999995e+00 6.538280000000000314e+00 1.822319999999999940e+00 5.100069999999999659e+00 1.994660000000000100e+00 1.789539999999999909e+00 5.056879999999999598e+00 6.531019999999999825e+00 1.784450000000000092e+00 1.006099999999999994e+00 1.997519999999999962e+00 1.743679999999999897e+00 9.401100000000000012e-01 6.530380000000000074e+00 2.094999999999999987e-02 4.072779999999999845e+00 2.003690000000000193e+00 -1.050000000000000065e-02 4.017520000000000202e+00 6.528010000000000090e+00 5.348040000000000127e+00 1.003319999999999990e+00 1.995810000000000084e+00 5.305979999999999919e+00 9.394700000000000273e-01 6.538850000000000051e+00 3.603149999999999853e+00 4.062899999999999956e+00 1.989260000000000028e+00 3.560010000000000119e+00 4.025750000000000384e+00 6.538509999999999600e+00 -1.702000000000000041e-02 1.999610000000000110e+00 4.264969999999999928e+00 -5.668999999999999734e-02 1.943489999999999940e+00 8.797919999999999519e+00 -1.759060000000000068e+00 5.072949999999999626e+00 4.264029999999999987e+00 -1.811819999999999986e+00 5.013799999999999812e+00 8.811519999999999797e+00 3.545770000000000088e+00 1.989079999999999959e+00 4.279169999999999696e+00 3.517929999999999779e+00 1.952339999999999964e+00 8.804289999999999949e+00 1.810580000000000078e+00 5.085479999999999556e+00 4.279069999999999929e+00 1.763020000000000032e+00 5.027470000000000105e+00 8.802970000000000184e+00
1.791199999999999903e+00 9.900200000000000111e-01 4.356300000000000061e+00 1.725060000000000038e+00 9.435000000000000053e-01 9.011060000000000514e+00 -3.162000000000000227e-02 4.129830000000000112e+00 4.354709999999999859e+00 -8.258999999999999675e-02 4.077869999999999884e+00 8.997360000000000468e+00 5.448920000000000208e+00 9.916399999999999659e-01 4.365219999999999878e+00 5.392179999999999751e+00 9.434099999999999708e-01 9.004659999999999442e+00 3.634279999999999955e+00 4.128639999999999866e+00 4.351790000000000269e+00 3.585119999999999862e+00 4.074049999999999727e+00 9.008490000000000109e+00 -1.511000000000000017e-02 2.069729999999999848e+00 2.045129999999999892e+00 -6.103999999999999704e-02 2.007239999999999913e+00 6.697770000000000223e+00 -1.817110000000000003e+00 5.180290000000000283e+00 2.053479999999999972e+00 -1.889150000000000107e+00 5.152339999999999698e+00 6.672410000000000174e+00 3.649150000000000116e+00 2.061519999999999797e+00 2.039099999999999913e+00 3.595680000000000209e+00 2.019480000000000164e+00 6.690299999999999692e+00 1.847020000000000106e+00 5.186580000000000190e+00 2.040280000000000094e+00 1.788380000000000081e+00 5.145500000000000185e+00 6.683480000000000310e+00 1.808720000000000105e+00 1.023470000000000102e+00 2.054689999999999905e+00 1.756359999999999921e+00 9.704800000000000093e-01 6.682319999999999816e+00 8.200000000000000691e-03 4.157449999999999868e+00 2.046300000000000008e+00 -5.079000000000000181e-02 4.096910000000000274e+00 6.683019999999999960e+00 5.497469999999999857e+00 1.029379999999999962e+00 2.055159999999999876e+00 5.415470000000000006e+00 9.700299999999999478e-01 6.689320000000000377e+00 3.671520000000000117e+00 4.166649999999999743e+00 2.045119999999999827e+00 3.607079999999999842e+00 4.093049999999999855e+00 6.685979999999999812e+00 -4.152999999999999747e-02 2.033889999999999976e+00 4.356580000000000119e+00 -1.062400000000000011e-01 1.989530000000000021e+00 9.012119999999999465e+00 -1.854819999999999913e+00 5.162329999999999863e+00 4.372029999999999639e+00 -1.910740000000000105e+00 5.118019999999999570e+00 9.006779999999999120e+00 3.628060000000000063e+00 2.035509999999999931e+00 4.359950000000000436e+00 3.570009999999999906e+00 1.990410000000000013e+00 9.008549999999999613e+00 1.810810000000000031e+00 5.174509999999999721e+00 4.356519999999999726e+00 1.757719999999999949e+00 5.136479999999999713e+00 9.005499999999999616e+00
1.874829999999999997e+00 1.006529999999999925e+00 4.239639999999999631e+00 1.985980000000000079e+00 9.579100000000000392e-01 8.745960000000000178e+00 1.378800000000000026e-01 4.244519999999999627e+00 4.235389999999999766e+00 2.363099999999999923e-01 4.175989999999999647e+00 8.741009999999999280e+00 5.425749999999999851e+00 1.022280000000000078e+00 4.227319999999999744e+00 5.522450000000000081e+00 9.457400000000000251e-01 8.740479999999999805e+00 3.683720000000000105e+00 4.232190000000000119e+00 4.237549999999999706e+00 3.793899999999999828e+00 4.161940000000000417e+00 8.748570000000000846e+00 6.290999999999999370e-02 2.113669999999999938e+00 1.976410000000000000e+00 1.726000000000000034e-01 2.055940000000000101e+00 6.476549999999999585e+00 -1.681659999999999933e+00 5.336319999999999730e+00 1.973540000000000072e+00 -1.581420000000000048e+00 5.280540000000000234e+00 6.490179999999999616e+00 3.599920000000000009e+00 2.121049999999999880e+00 1.985740000000000061e+00 3.698469999999999924e+00 2.060820000000000096e+00 6.486180000000000057e+00 1.875150000000000095e+00 5.346829999999999750e+00 1.968909999999999938e+00 1.980629999999999891e+00 5.264619999999999855e+00 6.488999999999999879e+00 1.834200000000000053e+00 1.028510000000000035e+00 1.989600000000000035e+00 1.940269999999999939e+00 9.899499999999999966e-01 6.494609999999999772e+00 7.806000000000000438e-02 4.270789999999999864e+00 1.979530000000000012e+00 1.807600000000000040e-01 4.208400000000000141e+00 6.485730000000000217e+00 5.374279999999999724e+00 1.048089999999999966e+00 1.984779999999999989e+00 5.483299999999999841e+00 9.806200000000000472e-01 6.481379999999999697e+00 3.635170000000000012e+00 4.272689999999999877e+00 1.985810000000000075e+00 3.733449999999999935e+00 4.211450000000000138e+00 6.485269999999999868e+00 1.115700000000000025e-01 2.087600000000000122e+00 4.240409999999999791e+00 2.228700000000000125e-01 2.031099999999999905e+00 8.742240000000000677e+00 -1.635580000000000034e+00 5.319549999999999557e+00 4.243310000000000137e+00 -1.522939999999999960e+00 5.257679999999999687e+00 8.737740000000000506e+00 3.665900000000000158e+00 2.093300000000000161e+00 4.238089999999999691e+00 3.761849999999999916e+00 2.027899999999999814e+00 8.745910000000000295e+00 1.911010000000000097e+00 5.311810000000000365e+00 4.237650000000000361e+00 2.025599999999999845e+00 5.232540000000000191e+00 8.752250000000000085e+00
1.842370000000000063e+00 1.102139999999999898e+00 4.246990000000000265e+00 1.890479999999999938e+00 1.202909999999999924e+00 8.781380000000000408e+00 6.988999999999999380e-02 4.173799999999999955e+00 4.238660000000000316e+00 1.336100000000000065e-01 4.273550000000000182e+00 8.772980000000000445e+00 5.387760000000000105e+00 1.108659999999999979e+00 4.238010000000000055e+00 5.436609999999999943e+00 1.213019999999999987e+00 8.775460000000000704e+00 3.636769999999999836e+00 4.184429999999999872e+00 4.234759999999999636e+00 3.695250000000000146e+00 4.281979999999999897e+00 8.781280000000000641e+00 3.932000000000000078e-02 2.082759999999999945e+00 1.984490000000000087e+00 9.841999999999999360e-02 2.177820000000000089e+00 6.521370000000000111e+00 -1.713710000000000067e+00 5.152350000000000207e+00 1.998439999999999994e+00 -1.662279999999999980e+00 5.234099999999999753e+00 6.503669999999999618e+00 3.601109999999999811e+00 2.079899999999999860e+00 1.986019999999999897e+00 3.659050000000000136e+00 2.166749999999999954e+00 6.516049999999999898e+00 1.833159999999999901e+00 5.147149999999999892e+00 1.972960000000000047e+00 1.901690000000000103e+00 5.245300000000000296e+00 6.518349999999999866e+00 1.810060000000000002e+00 1.057060000000000111e+00 2.004739999999999966e+00 1.857529999999999903e+00 1.167790000000000106e+00 6.516200000000000436e+00 6.289999999999999758e-02 4.123269999999999769e+00 1.993230000000000057e+00 1.161999999999999977e-01 4.234799999999999898e+00 6.512959999999999638e+00 5.364779999999999660e+00 1.058720000000000105e+00 1.985859999999999959e+00 5.406550000000000189e+00 1.149489999999999901e+00 6.509850000000000136e+00 3.614799999999999791e+00 4.127989999999999604e+00 1.992650000000000032e+00 3.661929999999999907e+00 4.214920000000000222e+00 6.530529999999999724e+00 6.630999999999999395e-02 2.144429999999999836e+00 4.268760000000000332e+00 1.243999999999999967e-01 2.222999999999999865e+00 8.790670000000000428e+00 -1.680500000000000105e+00 5.209699999999999775e+00 4.252019999999999911e+00 -1.638980000000000103e+00 5.299260000000000304e+00 8.788500000000000867e+00 3.634009999999999962e+00 2.139990000000000059e+00 4.239860000000000184e+00 3.671829999999999927e+00 2.234430000000000138e+00 8.777839999999999421e+00 1.862239999999999895e+00 5.194079999999999586e+00 4.253870000000000040e+00 1.926239999999999952e+00 5.296240000000000059e+00 8.788970000000000837e+00
