-2.903862491799999930e+02
-2.898010117599999944e+02
-2.894151464000000260e+02
-2.896900199199999975e+02
-2.906178813000000218e+02
-2.904299685799999793e+02
-2.904117707699999755e+02
-2.888224378900000033e+02
-2.905289217399999870e+02
-2.901226217099999758e+02
-2.882579469199999949e+02
