-8.999990602998172231e-06 -4.194616242132582210e-12 1.479000000057182620e-03 1.500000705112103658e-05 2.000023312641246063e-06 1.470999999896402399e-03 1.282684277367081111e-11 -2.999993875245463358e-06 1.477000000012440150e-03 -1.999997538939904265e-06 6.000003804832031969e-06 1.470999999987826880e-03 9.000007082893061013e-06 2.000016448266800414e-06 1.475999999934524045e-03 -1.299999637235377942e-05 4.999991194574570841e-06 1.474000000061863325e-03 2.000001326246656267e-06 7.000008403197013924e-06 1.472999999958265506e-03 4.000017404205047043e-06 -6.999989293464196838e-06 1.475000000003612744e-03 -6.999987160445386769e-06 -3.000001899578198537e-06 1.479000000056915690e-03 -9.999918013503916607e-07 1.000004952353357712e-06 1.471000000002206870e-03 -7.999983756012312900e-06 -6.000003071974769714e-06 1.473000000075709321e-03 1.051909947620465526e-11 -9.999938835402838829e-07 1.475000000004146605e-03 4.000004743384983864e-06 4.000010681648049580e-06 1.468999999957998478e-03 -9.999883079673728199e-07 -1.999995014470651562e-06 1.479000000014647201e-03 2.000008230415705042e-06 1.000008415641219704e-06 1.475999999983146176e-03 -2.999987198569708866e-06 -2.999997334386573489e-06 1.473000000031500977e-03 1.499996998579129334e-05 1.800001110459310610e-05 -1.473000000169945572e-03 -2.600001396799006933e-05 3.999964043922667841e-06 -1.475999999851393060e-03 -7.000029791817708737e-06 1.799998600433267397e-05 -1.438000000030166016e-03 -2.800001071604308340e-05 9.999616244860180590e-07 -1.505999999826245286e-03 -3.200002087850877962e-05 9.999957142223508001e-06 -1.479999999838151580e-03 2.999960837422995333e-06 2.599999735510519040e-05 -1.468000000126876061e-03 -1.900000262624024330e-05 -6.000028010526298742e-06 -1.496999999854400822e-03 1.199997701703460749e-05 1.200000775741825001e-05 -1.450000000126004359e-03 2.399994936858243754e-05 3.600002145712408299e-05 -1.467000000301769665e-03 6.000050267584311768e-06 -5.199999925205037518e-05 -1.479999999822490930e-03 7.300000792373798585e-05 -1.499992229372491243e-05 -1.462000000401612963e-03 -6.499998877975015385e-05 -1.800008074658694478e-05 -1.484999999512373343e-03 -3.999965823076039033e-06 -3.800001074382694565e-05 -1.483999999817009301e-03 1.999994474674486134e-05 4.000001684631555133e-05 -1.472000000292942104e-03 -5.399997500318738799e-05 -3.000006811973391784e-05 -1.483999999532502291e-03 9.100000214801427258e-05 -9.999901663284102858e-06 -1.468000000536711855e-03
3.075899999999999745e-01 4.901960000000000206e-01 -6.344099999999999739e-02 2.259140000000000037e-01 2.664630000000000054e-01 3.917500000000000149e-02 2.208769999999999900e-01 3.830760000000000276e-01 -7.890199999999999991e-02 1.793319999999999914e-01 3.474030000000000173e-01 4.166099999999999665e-02 1.908600000000000019e-01 2.683090000000000197e-01 -9.305000000000000770e-03 1.813800000000000134e-01 3.995830000000000215e-01 6.510000000000000162e-03 9.761000000000000232e-02 4.381510000000000127e-01 1.501709999999999989e-01 1.908940000000000081e-01 1.166930000000000051e-01 -6.264100000000000223e-02 -3.988479999999999803e-01 -2.635560000000000125e-01 1.146370000000000028e-01 -2.906030000000000002e-01 -4.453869999999999774e-01 7.113500000000000378e-02 -2.065680000000000016e-01 -2.860139999999999905e-01 -1.208319999999999950e-01 -2.335250000000000103e-01 -1.849329999999999863e-01 -2.227999999999999946e-03 -3.362669999999999826e-01 -3.579309999999999992e-01 -1.411109999999999864e-01 -2.820810000000000262e-01 -4.386329999999999951e-01 1.123480000000000034e-01 -3.315879999999999939e-01 -1.577810000000000046e-01 -4.385200000000000209e-02 -2.990120000000000000e-01 -2.524900000000000061e-02 1.241929999999999978e-01 2.675540000000000140e-01 3.411109999999999975e-01 1.119229999999999947e-01 3.417899999999999827e-01 3.309210000000000207e-01 -9.604799999999999449e-02 2.053190000000000015e-01 2.024859999999999993e-01 1.502829999999999999e-01 1.451330000000000120e-01 4.464440000000000075e-01 -1.327200000000000046e-01 6.243720000000000381e-01 1.838249999999999884e-01 1.642220000000000069e-01 3.510119999999999907e-01 3.439090000000000202e-01 -1.532660000000000133e-01 3.673449999999999771e-01 5.480439999999999756e-01 2.016159999999999897e-01 3.928969999999999962e-01 4.647839999999999749e-01 -2.313000000000000125e-02 -2.854439999999999755e-01 -2.444129999999999914e-01 -1.770809999999999884e-01 -3.575409999999999977e-01 -2.783109999999999751e-01 6.048499999999999710e-02 -2.211879999999999957e-01 -7.423370000000000246e-01 -9.298999999999999974e-03 -1.308549999999999991e-01 -4.956039999999999890e-01 -1.294879999999999920e-01 -3.597960000000000047e-01 -4.388139999999999818e-01 2.740099999999999827e-02 -1.943880000000000052e-01 -1.517239999999999978e-01 -8.595200000000000062e-02 -7.140699999999999825e-02 -4.455529999999999768e-01 -5.737699999999999745e-02 -2.907669999999999977e-01 -6.151579999999999826e-01 1.091300000000000082e-02
4.193999999999999950e-01 -4.758799999999999836e-02 -6.940100000000000435e-02 2.599770000000000136e-01 1.749300000000000160e-02 8.193100000000000382e-02 3.104120000000000212e-01 2.581300000000000261e-01 -1.336289999999999978e-01 3.232889999999999930e-01 7.812700000000000200e-02 4.669000000000000407e-03 1.992599999999999927e-01 2.960700000000000137e-02 -7.075499999999999845e-02 4.173970000000000180e-01 1.951060000000000016e-01 -1.818499999999999978e-02 1.171360000000000040e-01 2.145870000000000000e-01 -4.954900000000000276e-02 3.854090000000000016e-01 7.841800000000000159e-02 5.864099999999999868e-02 -1.959120000000000028e-01 -1.104070000000000051e-01 7.984800000000000231e-02 -3.237309999999999910e-01 -2.172630000000000117e-01 5.936899999999999816e-02 -8.009600000000000053e-02 -4.456660000000000066e-01 -8.684000000000000746e-03 -1.668930000000000136e-01 -2.044630000000000059e-01 7.690600000000000214e-02 -2.494439999999999991e-01 -3.501779999999999893e-01 5.933999999999999692e-02 -2.229639999999999955e-01 -3.165520000000000000e-01 -7.401299999999999546e-02 -1.394880000000000009e-01 -2.773120000000000029e-01 -1.257300000000000084e-02 -2.157100000000000128e-01 1.136429999999999940e-01 4.438899999999999790e-02 4.995589999999999753e-01 3.780209999999999959e-01 -4.538799999999999779e-02 4.940950000000000064e-01 3.822539999999999827e-01 2.970799999999999830e-02 1.532129999999999881e-01 3.293679999999999941e-01 -7.324100000000000055e-02 2.737609999999999766e-01 2.312939999999999996e-01 -6.982700000000000018e-02 9.512700000000000322e-02 5.332300000000000234e-02 1.326529999999999931e-01 2.529500000000000082e-01 4.701400000000000023e-02 5.570499999999999757e-02 2.113279999999999881e-01 4.703319999999999723e-01 1.264139999999999986e-01 3.564930000000000043e-01 7.877699999999999980e-02 -7.518299999999999983e-02 -4.672239999999999727e-01 -1.356040000000000023e-01 1.237300000000000066e-01 -4.421510000000000162e-01 -1.692309999999999925e-01 -9.152699999999999725e-02 -5.509490000000000220e-01 -1.578050000000000008e-01 -8.686900000000000177e-02 -3.197329999999999894e-01 -4.461099999999999788e-02 1.918800000000000019e-02 -2.069739999999999913e-01 4.035199999999999898e-02 1.537729999999999930e-01 -5.079949999999999743e-01 -2.905039999999999845e-01 -1.695220000000000060e-01 -6.056899999999999784e-02 -2.243350000000000066e-01 -1.087019999999999931e-01 -6.189700000000000202e-01 -4.327000000000000117e-03 5.078599999999999781e-02
-2.525749999999999940e-01 -4.715460000000000207e-01 3.513000000000000064e-03 1.105399999999999959e-02 -5.729819999999999913e-01 -1.299600000000000061e-02 -1.763460000000000027e-01 -3.137269999999999781e-01 1.140140000000000042e-01 -9.171100000000000085e-02 -5.374480000000000368e-01 6.669999999999999714e-03 -2.433849999999999902e-01 -4.028220000000000134e-01 -4.449600000000000083e-02 -2.483069999999999999e-01 -4.315200000000000147e-01 1.016100000000000059e-01 -1.221880000000000049e-01 -5.854679999999999884e-01 -1.050500000000000045e-02 -5.217700000000000116e-02 -4.517729999999999801e-01 -7.257000000000000429e-03 1.592119999999999924e-01 3.420730000000000159e-01 -1.576800000000000077e-02 2.909129999999999772e-01 4.299510000000000276e-01 -7.911200000000000176e-02 -1.178120000000000001e-01 4.634719999999999951e-01 -9.675599999999999479e-02 1.172480000000000050e-01 2.875949999999999895e-01 2.494999999999999822e-03 -1.306950000000000056e-01 3.822570000000000134e-01 3.742499999999999993e-02 9.545299999999999618e-02 5.131599999999999495e-01 -1.150499999999999960e-02 1.930330000000000101e-01 4.296570000000000111e-01 1.791299999999999837e-02 7.649899999999999756e-02 1.036870000000000014e-01 -5.643700000000000105e-02 -6.393600000000000672e-02 -4.188080000000000136e-01 -1.365599999999999974e-02 -3.175129999999999897e-01 -5.417830000000000146e-01 -2.731899999999999953e-02 -1.774799999999999989e-01 -5.193189999999999751e-01 -5.948900000000000021e-02 -4.877100000000000185e-02 -2.147219999999999962e-01 1.840970000000000106e-01 7.098500000000000643e-02 -6.397620000000000529e-01 -1.512299999999999929e-02 -2.302420000000000022e-01 -6.100029999999999619e-01 2.571499999999999828e-02 5.445799999999999946e-02 -4.484480000000000133e-01 5.555800000000000322e-02 -1.541899999999999937e-01 -4.190809999999999813e-01 2.492499999999999924e-02 3.572690000000000032e-01 2.687060000000000004e-01 -7.975599999999999357e-02 2.086599999999999913e-02 5.906489999999999796e-01 3.854500000000000287e-02 1.217069999999999957e-01 7.102340000000000320e-01 -7.083200000000000607e-02 6.252900000000000125e-02 4.497630000000000239e-01 6.930100000000000149e-02 2.841440000000000077e-01 7.277019999999999600e-01 1.603900000000000117e-02 2.190880000000000050e-01 5.668210000000000193e-01 -6.607200000000000573e-02 1.365709999999999980e-01 6.228289999999999660e-01 8.028399999999999426e-02 1.562979999999999925e-01 6.906550000000000189e-01 -1.110249999999999987e-01
-9.017300000000000315e-02 -1.294140000000000013e-01 3.369400000000000173e-02 -4.550000000000000008e-04 -1.634279999999999899e-01 1.314700000000000070e-02 -8.899600000000000566e-02 -3.715609999999999746e-01 7.307500000000000107e-02 5.607299999999999784e-02 -3.265799999999999953e-02 -5.321100000000000135e-02 1.789500000000000118e-02 -1.484560000000000046e-01 2.437299999999999883e-02 -1.316610000000000003e-01 -1.234190000000000009e-01 5.710099999999999898e-02 -2.173839999999999939e-01 -1.407500000000000070e-02 -5.025000000000000300e-02 1.476600000000000135e-01 -8.927899999999999725e-02 -4.692299999999999943e-02 9.421400000000000607e-02 9.103400000000000380e-02 6.411699999999999344e-02 1.542320000000000080e-01 1.067030000000000062e-01 -1.325119999999999909e-01 1.192300000000000026e-01 1.500319999999999987e-01 -1.655179999999999985e-01 9.632300000000000584e-02 1.920070000000000110e-01 1.158769999999999939e-01 5.000600000000000184e-02 6.467699999999999838e-02 -5.824000000000000184e-03 1.028120000000000006e-01 9.419800000000000395e-02 7.587700000000000000e-02 2.231789999999999885e-01 1.883019999999999972e-01 -3.455500000000000238e-02 -5.765900000000000192e-02 -1.041999999999999958e-03 -2.143400000000000166e-02 1.884470000000000034e-01 -1.756369999999999876e-01 4.377199999999999841e-02 9.100999999999999715e-03 -2.692269999999999941e-01 -1.867949999999999888e-01 -2.331630000000000091e-01 9.825799999999999812e-02 -2.547699999999999965e-02 -9.832599999999999674e-02 -7.971000000000000307e-02 7.811000000000000235e-03 -3.406939999999999968e-01 -4.385330000000000061e-01 1.270380000000000120e-01 -2.849340000000000206e-01 -1.935600000000000098e-01 -7.159600000000000686e-02 -1.941309999999999980e-01 -6.896800000000000153e-02 -5.356799999999999756e-02 -3.997999999999999818e-03 -1.954909999999999981e-01 4.781300000000000133e-02 8.891799999999999704e-02 3.513769999999999949e-01 2.574299999999999852e-02 1.730909999999999949e-01 2.900360000000000160e-01 1.458500000000000074e-02 7.630699999999999983e-02 2.022259999999999891e-01 2.674199999999999841e-02 -1.985079999999999900e-01 -2.291500000000000134e-02 -4.761499999999999760e-02 -3.079000000000000140e-02 1.456250000000000044e-01 7.506699999999999484e-02 8.044000000000000802e-03 2.196329999999999949e-01 -4.322199999999999653e-02 3.026449999999999974e-01 2.351890000000000092e-01 -1.191760000000000042e-01 6.269700000000000273e-02 8.807800000000000351e-02 2.318429999999999935e-01
2.052140000000000075e-01 3.463800000000000212e-02 -1.351690000000000114e-01 3.810299999999999798e-02 -1.862979999999999914e-01 6.568999999999999839e-02 5.138199999999999712e-02 7.207900000000000418e-02 -3.588199999999999723e-02 -8.913500000000000589e-02 1.325510000000000022e-01 7.478600000000000525e-02 -1.167100000000000082e-02 -2.367999999999999966e-02 -2.429999999999999868e-02 1.083139999999999936e-01 -1.200419999999999959e-01 5.356400000000000050e-02 5.200500000000000261e-02 6.329899999999999416e-02 -1.743799999999999864e-02 1.986759999999999915e-01 -9.357400000000000440e-02 -1.676800000000000165e-02 -1.703739999999999977e-01 -2.284619999999999984e-01 1.624510000000000121e-01 -1.724710000000000132e-01 1.523780000000000134e-01 -1.338270000000000015e-01 1.317629999999999912e-01 -1.079149999999999970e-01 4.613300000000000040e-02 -2.725800000000000098e-02 -9.112000000000000655e-02 -9.351999999999999202e-03 9.894999999999999282e-03 -1.569000000000000117e-01 -8.713999999999999524e-03 -2.955599999999999894e-02 -5.038000000000000117e-02 -5.413500000000000256e-02 3.715600000000000153e-02 -1.379499999999999997e-02 3.507899999999999907e-02 -3.240599999999999731e-02 -6.480400000000000049e-02 -5.572999999999999829e-03 -1.475950000000000040e-01 2.744699999999999918e-02 -7.481799999999999562e-02 3.453300000000000120e-02 -8.462699999999999390e-02 8.598000000000000087e-02 -3.842099999999999682e-02 1.189650000000000013e-01 -8.664399999999999880e-02 -8.975700000000000345e-02 4.546999999999999827e-03 6.148699999999999999e-02 3.337820000000000231e-01 1.069800000000000056e-01 -2.021169999999999911e-01 1.379849999999999965e-01 1.491760000000000030e-01 1.371120000000000116e-01 -1.515759999999999885e-01 1.389589999999999992e-01 -9.068800000000000472e-02 1.804989999999999928e-01 -3.791999999999999798e-03 -1.736250000000000016e-01 -1.443020000000000136e-01 -1.319140000000000035e-01 -8.399999999999999535e-05 -1.664599999999999969e-01 -1.151060000000000000e-01 -6.968000000000000235e-03 -7.699300000000000588e-02 -5.690599999999999825e-02 9.568000000000000116e-02 2.150430000000000119e-01 1.745339999999999947e-01 -9.904999999999999916e-02 -1.936999999999999920e-03 -3.396699999999999720e-02 2.211839999999999917e-01 2.728300000000000169e-02 5.618000000000000077e-02 -4.371599999999999792e-02 -1.000339999999999979e-01 8.689000000000000543e-03 6.505099999999999771e-02 -3.116869999999999918e-01 3.228590000000000071e-01 1.146729999999999972e-01
-1.340749999999999997e-01 7.875899999999999568e-02 -1.028730000000000061e-01 -3.702610000000000068e-01 2.960450000000000026e-01 5.406099999999999794e-02 -1.875040000000000040e-01 1.709589999999999999e-01 -1.867699999999999916e-02 -1.499610000000000110e-01 1.395180000000000031e-01 5.111999999999999877e-02 -3.792240000000000055e-01 1.255920000000000092e-01 1.123299999999999993e-02 -1.227540000000000020e-01 5.219900000000000234e-02 1.129740000000000050e-01 -2.044809999999999961e-01 1.616390000000000049e-01 -7.527399999999999369e-02 -3.413189999999999835e-01 2.874920000000000253e-01 -3.656000000000000222e-02 2.416899999999999882e-01 -1.574800000000000089e-01 -6.604200000000000348e-02 9.937999999999999612e-02 -6.633699999999999319e-02 1.005530000000000035e-01 -2.017000000000000130e-03 -3.518589999999999773e-01 1.505080000000000029e-01 4.039380000000000193e-01 -1.987420000000000020e-01 -1.467700000000000081e-02 1.318709999999999882e-01 -2.055720000000000047e-01 1.183840000000000031e-01 2.922150000000000025e-01 -1.816959999999999964e-01 -1.666950000000000098e-01 4.271260000000000057e-01 -1.386409999999999865e-01 -5.313000000000000014e-03 2.081570000000000087e-01 -4.288069999999999937e-01 1.440450000000000064e-01 -9.181799999999999684e-02 3.332869999999999999e-01 -1.797519999999999951e-01 -3.164399999999999991e-01 7.002400000000000291e-02 1.931319999999999981e-01 -2.882020000000000137e-01 2.210219999999999962e-01 1.066600000000000048e-01 -2.960979999999999723e-01 3.017929999999999779e-01 -1.107299999999999951e-01 -4.226380000000000137e-01 9.308299999999999907e-02 -5.102199999999999791e-02 -2.427600000000000036e-01 4.318810000000000149e-01 -2.018100000000000102e-02 -1.822479999999999933e-01 3.701679999999999970e-01 2.095199999999999840e-02 -4.185220000000000051e-01 3.988430000000000031e-01 1.328449999999999909e-01 2.490159999999999874e-01 -5.669500000000000234e-02 1.427199999999999996e-02 3.624100000000000099e-01 -3.400540000000000229e-01 -1.054650000000000032e-01 2.419060000000000099e-01 -2.913669999999999871e-01 2.502700000000000063e-02 2.408420000000000005e-01 -1.829159999999999953e-01 -5.477599999999999830e-02 4.575270000000000170e-01 -1.953129999999999866e-01 -1.240359999999999935e-01 2.985110000000000263e-01 -3.754879999999999884e-01 -8.963799999999999546e-02 1.564570000000000127e-01 -1.957510000000000083e-01 2.628700000000000134e-02 3.392749999999999932e-01 -1.655850000000000100e-01 -4.034200000000000286e-02
2.520599999999999924e-02 9.807899999999999952e-02 2.699000000000000010e-02 4.171549999999999980e-01 1.992669999999999997e-01 -1.023600000000000065e-01 2.000679999999999958e-01 4.989799999999999791e-02 1.408369999999999900e-01 9.713499999999999912e-02 1.805370000000000030e-01 -2.812699999999999922e-02 -4.371499999999999692e-02 5.976700000000000068e-02 -7.458099999999999452e-02 3.564379999999999771e-01 1.282399999999999929e-01 1.023669999999999997e-01 -6.513900000000000245e-02 -1.234699999999999964e-01 2.474499999999999963e-02 1.320310000000000095e-01 9.317699999999999594e-02 1.586699999999999916e-02 -1.931609999999999994e-01 -1.398240000000000038e-01 1.373100000000000015e-02 -5.590699999999999836e-02 -1.623169999999999891e-01 -5.918600000000000250e-02 -1.661060000000000036e-01 -1.511109999999999953e-01 4.707000000000000073e-02 4.556199999999999833e-02 -1.917909999999999893e-01 -6.547799999999999454e-02 8.617299999999999960e-02 -4.083699999999999830e-02 1.132060000000000011e-01 -6.859700000000000519e-02 -3.534249999999999892e-01 -1.080340000000000050e-01 -3.266700000000000159e-02 -4.211700000000000166e-02 -1.485999999999999995e-02 -2.441599999999999882e-01 -2.717870000000000008e-01 -4.541200000000000098e-02 -5.903300000000000214e-02 -4.721700000000000202e-02 -5.933700000000000085e-02 -2.143099999999999866e-02 2.311340000000000061e-01 1.887800000000000034e-01 3.892090000000000272e-01 1.590390000000000137e-01 -7.519199999999999495e-02 1.119760000000000061e-01 1.774139999999999884e-01 1.640300000000000091e-01 1.793399999999999994e-01 -1.286000000000000034e-03 6.657100000000000517e-02 1.440500000000000114e-01 4.652930000000000121e-01 1.978099999999999997e-02 1.256299999999999951e-02 3.683759999999999812e-01 2.451740000000000030e-01 1.876420000000000032e-01 1.622540000000000093e-01 -4.662199999999999678e-02 -6.983499999999999430e-02 -8.594300000000000550e-02 1.669999999999999957e-02 -2.542030000000000123e-01 -9.173299999999999510e-02 2.097100000000000006e-02 -2.777259999999999729e-01 -9.922000000000000264e-02 -2.378900000000000112e-02 -6.877000000000000300e-03 -2.498699999999999879e-02 -1.051480000000000053e-01 7.895599999999999841e-02 2.720960000000000045e-01 -9.589300000000000601e-02 -5.465269999999999850e-01 -2.476170000000000038e-01 -1.022190000000000043e-01 -8.112400000000000166e-02 -3.051300000000000123e-01 -2.721009999999999818e-01 -2.772950000000000137e-01 -2.647579999999999933e-01 7.151899999999999924e-02
-4.776400000000000090e-02 2.922279999999999878e-01 2.826299999999999993e-02 3.302900000000000280e-02 2.215739999999999932e-01 -7.199999999999999803e-03 1.635109999999999897e-01 -4.341199999999999920e-02 8.458200000000000440e-02 5.750899999999999762e-02 1.491899999999999893e-01 2.762399999999999925e-02 1.686549999999999994e-01 3.260199999999999765e-01 -4.542700000000000210e-02 1.055050000000000016e-01 3.588330000000000131e-01 1.750499999999999973e-02 7.965099999999999958e-02 5.270299999999999985e-02 8.796400000000000052e-02 3.780000000000000027e-02 2.336650000000000116e-01 -4.881800000000000028e-02 -2.657800000000000093e-02 -1.737120000000000053e-01 4.083599999999999730e-02 -2.552989999999999982e-01 -5.779399999999999815e-02 -1.514260000000000050e-01 -1.234009999999999968e-01 3.593500000000000166e-02 -1.045060000000000017e-01 2.921599999999999892e-02 -4.005389999999999784e-01 5.890000000000000097e-02 9.225600000000000467e-02 -7.807799999999999463e-02 6.574699999999999989e-02 -3.414799999999999780e-02 -2.338159999999999961e-01 -7.523699999999999832e-02 -6.889299999999999591e-02 1.047399999999999998e-01 1.880400000000000127e-02 -1.336710000000000120e-01 -1.927830000000000099e-01 -1.425099999999999978e-02 2.336699999999999888e-01 6.160199999999999704e-02 -1.330520000000000036e-01 6.672699999999999465e-02 2.477330000000000088e-01 1.085340000000000055e-01 4.623999999999999638e-03 1.010680000000000051e-01 -2.711900000000000074e-02 -1.488199999999999940e-02 1.752019999999999966e-01 7.374200000000000199e-02 -2.933230000000000004e-01 1.043720000000000064e-01 -1.288360000000000061e-01 2.562300000000000133e-01 2.813610000000000277e-01 -1.848400000000000043e-02 1.223270000000000052e-01 -2.044640000000000069e-01 -9.102000000000000715e-03 1.259699999999999986e-01 3.449119999999999964e-01 9.010999999999999913e-03 -2.934700000000000156e-02 -3.730200000000000182e-02 1.546279999999999877e-01 8.959000000000000297e-02 -1.147240000000000065e-01 -1.129679999999999990e-01 -1.221610000000000057e-01 -2.159159999999999968e-01 -7.023000000000000076e-02 -7.568999999999999340e-02 -2.023580000000000101e-01 -7.137000000000000115e-03 -1.384829999999999950e-01 -5.609000000000000270e-03 -4.925000000000000211e-02 -2.077029999999999987e-01 -1.463619999999999921e-01 1.219810000000000061e-01 -2.896200000000000163e-02 -4.052870000000000084e-01 8.854299999999999671e-02 -6.596699999999999786e-02 -5.789809999999999679e-01 1.638200000000000073e-02
1.602629999999999888e-01 -2.850960000000000161e-01 -6.017800000000000232e-02 1.694899999999999879e-02 -4.430470000000000241e-01 -6.104799999999999810e-02 -1.139800000000000015e-02 -4.562729999999999841e-01 -2.997100000000000111e-02 1.072120000000000017e-01 -4.417420000000000235e-01 -3.170499999999999707e-02 6.671699999999999853e-02 -5.229179999999999939e-01 1.069330000000000003e-01 2.217810000000000059e-01 -3.420219999999999927e-01 -8.188600000000000045e-02 2.200999999999999832e-02 -3.068040000000000211e-01 -4.325899999999999884e-02 8.296199999999999408e-02 -2.716230000000000033e-01 -7.430499999999999605e-02 -1.556300000000000044e-02 5.101369999999999516e-01 5.259500000000000286e-02 -1.999900000000000011e-01 4.905320000000000236e-01 1.004030000000000061e-01 -1.885600000000000123e-02 4.443509999999999960e-01 1.005629999999999996e-01 5.279999999999999971e-03 4.636290000000000133e-01 -1.366500000000000006e-02 1.683600000000000027e-02 3.875620000000000176e-01 2.865200000000000038e-02 2.595520000000000049e-01 3.859020000000000228e-01 -1.744199999999999917e-02 -2.537479999999999736e-01 3.144779999999999798e-01 1.661549999999999971e-01 -3.239250000000000185e-01 6.142260000000000497e-01 -6.270000000000000573e-02 -3.343999999999999750e-02 -2.091919999999999891e-01 -6.022000000000000269e-02 -4.267200000000000160e-02 -5.716830000000000522e-01 -9.582799999999999652e-02 2.536769999999999858e-01 -6.502620000000000067e-01 4.134700000000000181e-02 2.480580000000000007e-01 -5.875270000000000215e-01 1.589700000000000141e-02 4.993999999999999828e-02 -4.926670000000000216e-01 -1.541859999999999897e-01 -6.078999999999999682e-02 -4.832620000000000249e-01 2.129250000000000032e-01 2.840799999999999922e-02 -7.222889999999999588e-01 -5.972000000000000225e-02 1.498150000000000037e-01 -7.557880000000000154e-01 7.058399999999999397e-02 6.819600000000000661e-02 6.234410000000000229e-01 -9.214200000000000168e-02 -2.487659999999999871e-01 4.209689999999999821e-01 8.688099999999999989e-02 -1.074199999999999981e-02 3.502509999999999790e-01 -5.212999999999999752e-03 -1.900499999999999967e-01 3.707799999999999985e-01 5.898199999999999971e-02 -3.195890000000000120e-01 4.960030000000000272e-01 -7.552999999999999818e-03 1.994699999999999945e-02 5.200280000000000458e-01 3.355099999999999749e-02 3.977100000000000080e-02 4.541339999999999821e-01 -3.342300000000000132e-02 -8.784500000000000641e-02 6.957719999999999461e-01 -9.102300000000000668e-02
5.569700000000000345e-02 5.391740000000000421e-01 4.052599999999999952e-02 1.193089999999999984e-01 1.982410000000000005e-01 -7.625400000000000234e-02 3.622210000000000152e-01 1.085099999999999953e-01 1.031689999999999968e-01 1.379029999999999978e-01 3.051500000000000046e-02 -1.162700000000000018e-02 2.727419999999999844e-01 1.065170000000000006e-01 9.982099999999999307e-02 2.206470000000000098e-01 5.538499999999999673e-02 -3.856699999999999712e-02 9.454300000000000204e-02 9.480999999999999844e-03 1.096369999999999983e-01 5.847200000000000314e-02 -6.215999999999999998e-02 -8.293499999999999484e-02 -7.512800000000000034e-02 -1.185630000000000017e-01 6.851500000000000645e-02 -3.076769999999999783e-01 6.500000000000000222e-02 -1.532660000000000133e-01 -7.083299999999999319e-02 -2.236750000000000127e-01 -1.202069999999999944e-01 -1.553910000000000013e-01 1.193950000000000011e-01 8.144700000000000550e-02 -1.828780000000000128e-01 5.121300000000000158e-02 1.237199999999999932e-02 -3.492759999999999754e-01 1.699600000000000000e-01 -6.481499999999999762e-02 9.562099999999999766e-02 -1.219390000000000057e-01 1.413860000000000117e-01 -1.309680000000000011e-01 -1.712470000000000103e-01 -1.270030000000000048e-01 1.296489999999999865e-01 2.876310000000000255e-01 -8.655400000000000593e-02 2.768610000000000237e-01 -2.278880000000000072e-01 2.017000000000000043e-02 -1.428999999999999992e-01 7.378200000000000036e-02 -6.248200000000000282e-02 -9.707799999999999763e-02 -1.660590000000000122e-01 2.582909999999999928e-01 2.198499999999999899e-01 1.970399999999999929e-01 6.216200000000000198e-02 5.291000000000000147e-01 2.951309999999999767e-01 1.569949999999999957e-01 1.032020000000000021e-01 1.121209999999999984e-01 6.819300000000000361e-02 3.222639999999999949e-01 1.871639999999999970e-01 -2.290679999999999938e-01 -1.575050000000000061e-01 -4.305720000000000103e-01 -1.474949999999999872e-01 -3.084779999999999744e-01 7.343299999999999828e-02 -1.532749999999999946e-01 -4.255510000000000126e-01 -4.455779999999999741e-01 1.276819999999999899e-01 8.452400000000000191e-02 -2.558679999999999843e-01 -1.093139999999999945e-01 -3.174580000000000179e-01 -1.060009999999999980e-01 1.436350000000000127e-01 -7.940899999999999348e-02 -1.774759999999999949e-01 1.045520000000000060e-01 2.210900000000000018e-02 -9.150700000000000500e-02 -4.840200000000000058e-02 -3.041849999999999832e-01 -8.115999999999999603e-02 -8.728600000000000247e-02
