1.051942424499999973e+01 0.000000000000000000e+00 0.000000000000000000e+00 -5.540003022999999693e+00 9.298762641999999801e+00 0.000000000000000000e+00 -1.458784270000000050e-01 -2.692481849999999732e-01 1.327706972999999913e+01
1.047580723099999922e+01 0.000000000000000000e+00 0.000000000000000000e+00 -5.154105623999999608e+00 9.253780983000000404e+00 0.000000000000000000e+00 -6.247559999999999659e-04 3.647953999999999919e-01 1.316465620800000025e+01
1.090164431000000000e+01 0.000000000000000000e+00 0.000000000000000000e+00 -5.285846724999999857e+00 9.332822881000000237e+00 0.000000000000000000e+00 -7.532557099999999395e-02 5.860238599999999937e-02 1.387576335099999980e+01
1.080115202500000038e+01 0.000000000000000000e+00 0.000000000000000000e+00 -5.377041637999999679e+00 9.126266841999999713e+00 0.000000000000000000e+00 9.465337100000000004e-02 -5.083676599999999851e-02 1.321330941199999920e+01
1.104691022699999969e+01 0.000000000000000000e+00 0.000000000000000000e+00 -5.642124157999999667e+00 9.235615147000000746e+00 0.000000000000000000e+00 -3.702897660000000202e-01 3.347012899999999846e-01 1.390440101699999964e+01
1.088716911600000081e+01 0.000000000000000000e+00 0.000000000000000000e+00 -5.512817633000000050e+00 9.288311621000000073e+00 0.000000000000000000e+00 -3.072358000000000033e-01 -3.006786679999999823e-01 1.374722496899999946e+01
1.054831105000000058e+01 0.000000000000000000e+00 0.000000000000000000e+00 -5.093794811000000422e+00 9.556343297999999820e+00 0.000000000000000000e+00 -7.540576599999999907e-02 2.219508520000000040e-01 1.399174872799999925e+01
1.115680144000000062e+01 0.000000000000000000e+00 0.000000000000000000e+00 -5.434812605000000296e+00 9.260323749999999521e+00 0.000000000000000000e+00 -2.178823960000000060e-01 -7.188508200000000292e-02 1.396054133200000003e+01
1.111539760800000032e+01 0.000000000000000000e+00 0.000000000000000000e+00 -5.507195022000000328e+00 9.528711878999999385e+00 0.000000000000000000e+00 2.549762959999999912e-01 7.531739399999999585e-02 1.355215157900000023e+01
1.102724429100000059e+01 0.000000000000000000e+00 0.000000000000000000e+00 -5.701633240999999686e+00 9.292521148000000508e+00 0.000000000000000000e+00 3.678829330000000231e-01 -2.835678139999999736e-01 1.377909336399999951e+01
1.117923807600000075e+01 0.000000000000000000e+00 0.000000000000000000e+00 -5.312888059999999690e+00 9.424807161000000377e+00 0.000000000000000000e+00 3.250788769999999883e-01 -2.569646589999999842e-01 1.380250662899999980e+01
1.119419426400000006e+01 0.000000000000000000e+00 0.000000000000000000e+00 -5.458364250999999889e+00 9.586275435999999317e+00 0.000000000000000000e+00 -3.214919419999999750e-01 -1.082653999999999977e-01 1.349025996399999983e+01
