1.672109999999999985e+00 9.589199999999999946e-01 4.162779999999999703e+00 1.613550000000000040e+00 8.510499999999999732e-01 8.584120000000000417e+00 1.591469999999999940e+00 7.706199999999999717e-01 1.301234000000000002e+01 -1.735899999999999943e-01 4.047450000000000436e+00 4.159500000000000419e+00 -2.101999999999999980e-01 3.973289999999999988e+00 8.589259999999999451e+00 -2.706700000000000217e-01 3.869660000000000100e+00 1.300981999999999950e+01 -2.017619999999999969e+00 7.147680000000000256e+00 4.159110000000000085e+00 -2.064799999999999969e+00 7.071200000000000152e+00 8.582819999999999894e+00 -2.115889999999999826e+00 6.969120000000000203e+00 1.301205999999999996e+01 5.180410000000000181e+00 9.529300000000000548e-01 4.156419999999999781e+00 5.148179999999999978e+00 8.569900000000000295e-01 8.588260000000000005e+00 5.075529999999999653e+00 7.647100000000000009e-01 1.300977999999999923e+01 3.344780000000000086e+00 4.042480000000000295e+00 4.152720000000000411e+00 3.283349999999999991e+00 3.960840000000000138e+00 8.582800000000000651e+00 3.245470000000000077e+00 3.866800000000000015e+00 1.300783000000000023e+01 1.487840000000000051e+00 7.158730000000000260e+00 4.146049999999999791e+00 1.433650000000000091e+00 7.067359999999999864e+00 8.573760000000000048e+00 1.381629999999999914e+00 6.972290000000000099e+00 1.301950000000000074e+01 8.687329999999999330e+00 9.646200000000000330e-01 4.149860000000000326e+00 8.631999999999999673e+00 8.555000000000000382e-01 8.570389999999999731e+00 8.596899999999999764e+00 7.711299999999999821e-01 1.300493999999999950e+01 6.844529999999999781e+00 4.040440000000000254e+00 4.143369999999999997e+00 6.791920000000000179e+00 3.956230000000000135e+00 8.578030000000000044e+00 6.745199999999999640e+00 3.875399999999999956e+00 1.300501000000000040e+01 5.008309999999999818e+00 7.151539999999999786e+00 4.158509999999999707e+00 4.938229999999999897e+00 7.048910000000000231e+00 8.594049999999999301e+00 4.886730000000000018e+00 6.971949999999999648e+00 1.301609999999999978e+01 -8.228000000000000591e-02 2.020480000000000054e+00 1.949659999999999949e+00 -1.367800000000000127e-01 1.942050000000000054e+00 6.359230000000000160e+00 -1.815900000000000014e-01 1.852039999999999909e+00 1.079621999999999993e+01 -1.930180000000000007e+00 5.133810000000000429e+00 1.946069999999999967e+00 -1.982120000000000104e+00 5.046770000000000422e+00 6.371950000000000003e+00 -2.033440000000000136e+00 4.944300000000000139e+00 1.080450000000000088e+01 -3.788699999999999957e+00 8.235670000000000712e+00 1.937570000000000014e+00 -3.815549999999999997e+00 8.127140000000000697e+00 6.365190000000000126e+00 -3.871379999999999821e+00 8.060309999999999420e+00 1.080837999999999965e+01 3.431299999999999795e+00 2.024610000000000021e+00 1.945950000000000069e+00 3.379459999999999908e+00 1.927219999999999933e+00 6.378000000000000114e+00 3.325689999999999813e+00 1.843329999999999913e+00 1.079928999999999917e+01 1.573830000000000062e+00 5.128610000000000113e+00 1.947009999999999907e+00 1.537639999999999896e+00 5.031670000000000087e+00 6.371719999999999828e+00 1.479889999999999928e+00 4.947350000000000136e+00 1.079898000000000025e+01 -2.700199999999999823e-01 8.224840000000000373e+00 1.945850000000000080e+00 -3.117199999999999971e-01 8.148179999999999978e+00 6.385469999999999757e+00 -3.762099999999999889e-01 8.056259999999999977e+00 1.079607000000000028e+01 6.928930000000000256e+00 2.029900000000000038e+00 1.947079999999999922e+00 6.880659999999999776e+00 1.937179999999999902e+00 6.371570000000000178e+00 6.832390000000000185e+00 1.848209999999999908e+00 1.079634000000000071e+01 5.078299999999999592e+00 5.133090000000000153e+00 1.931750000000000078e+00 5.041719999999999757e+00 5.040370000000000239e+00 6.376459999999999795e+00 4.984300000000000175e+00 4.939669999999999561e+00 1.079982000000000042e+01 3.247520000000000184e+00 8.234439999999999316e+00 1.945109999999999895e+00 3.190259999999999874e+00 8.136139999999999262e+00 6.370059999999999611e+00 3.138689999999999980e+00 8.046580000000000510e+00 1.079742000000000068e+01 1.690560000000000063e+00 9.983699999999999797e-01 1.954649999999999999e+00 1.640079999999999982e+00 8.913699999999999957e-01 6.373910000000000409e+00 1.607180000000000053e+00 8.103799999999999892e-01 1.080264000000000024e+01 -1.334400000000000031e-01 4.093390000000000306e+00 1.960269999999999957e+00 -1.932699999999999974e-01 4.001829999999999998e+00 6.388600000000000279e+00 -2.409900000000000098e-01 3.915480000000000071e+00 1.079917000000000016e+01 -1.992050000000000098e+00 7.190970000000000084e+00 1.949130000000000029e+00 -2.044340000000000046e+00 7.112040000000000362e+00 6.373400000000000176e+00 -2.090409999999999879e+00 7.014879999999999782e+00 1.080198999999999998e+01 5.214480000000000004e+00 9.980099999999999527e-01 1.944939999999999891e+00 5.155560000000000365e+00 9.066100000000000270e-01 6.374590000000000423e+00 5.109359999999999680e+00 8.156299999999999661e-01 1.079857999999999940e+01 3.363350000000000062e+00 4.091300000000000381e+00 1.950550000000000006e+00 3.302929999999999922e+00 3.998800000000000132e+00 6.364959999999999951e+00 3.264600000000000168e+00 3.909889999999999866e+00 1.079752000000000045e+01 1.522520000000000095e+00 7.194200000000000372e+00 1.948890000000000011e+00 1.465270000000000072e+00 7.101679999999999993e+00 6.374690000000000190e+00 1.427929999999999922e+00 7.020909999999999762e+00 1.080789000000000044e+01 8.720520000000000493e+00 9.968000000000000194e-01 1.942560000000000064e+00 8.672420000000000684e+00 9.120099999999999874e-01 6.366559999999999775e+00 8.624309999999999476e+00 8.177799999999999514e-01 1.079495000000000005e+01 6.860859999999999737e+00 4.092130000000000045e+00 1.944590000000000041e+00 6.813019999999999854e+00 3.989170000000000105e+00 6.386470000000000091e+00 6.768950000000000244e+00 3.912959999999999994e+00 1.079579000000000022e+01 5.019239999999999924e+00 7.196159999999999890e+00 1.947670000000000012e+00 4.981659999999999755e+00 7.110330000000000261e+00 6.385430000000000383e+00 4.922869999999999635e+00 7.013510000000000133e+00 1.079921000000000042e+01 -1.128099999999999936e-01 1.980529999999999902e+00 4.162219999999999587e+00 -1.570199999999999929e-01 1.886589999999999989e+00 8.591810000000000613e+00 -2.065899999999999959e-01 1.808289999999999953e+00 1.299680999999999997e+01 -1.957389999999999963e+00 5.085350000000000037e+00 4.157840000000000202e+00 -2.003610000000000113e+00 4.991360000000000241e+00 8.587419999999999831e+00 -2.067060000000000120e+00 4.899460000000000370e+00 1.300101000000000084e+01 -3.798459999999999948e+00 8.177690000000000126e+00 4.159980000000000011e+00 -3.853369999999999962e+00 8.085860000000000269e+00 8.589949999999999974e+00 -3.895309999999999828e+00 8.009900000000000020e+00 1.301074000000000019e+01 3.390870000000000051e+00 1.994960000000000067e+00 4.170600000000000307e+00 3.339869999999999894e+00 1.875720000000000054e+00 8.582150000000000389e+00 3.305559999999999832e+00 1.808820000000000094e+00 1.300750999999999991e+01 1.536929999999999907e+00 5.078899999999999970e+00 4.168260000000000076e+00 1.519379999999999953e+00 5.002629999999999910e+00 8.587270000000000181e+00 1.456329999999999902e+00 4.900140000000000384e+00 1.301445999999999970e+01 -2.994899999999999785e-01 8.173799999999999955e+00 4.156189999999999607e+00 -3.421899999999999942e-01 8.093719999999999359e+00 8.589449999999999363e+00 -4.040599999999999747e-01 8.010020000000000806e+00 1.300849000000000011e+01 6.902929999999999566e+00 1.983489999999999975e+00 4.164380000000000415e+00 6.855699999999999683e+00 1.892430000000000057e+00 8.586940000000000239e+00 6.810299999999999798e+00 1.803700000000000081e+00 1.301010999999999918e+01 5.052690000000000126e+00 5.086909999999999599e+00 4.157960000000000100e+00 5.004509999999999792e+00 4.995459999999999567e+00 8.592510000000000758e+00 4.955589999999999939e+00 4.920079999999999565e+00 1.300838000000000072e+01 3.213389999999999969e+00 8.181509999999999394e+00 4.164019999999999833e+00 3.167829999999999924e+00 8.094599999999999795e+00 8.583650000000000446e+00 3.114009999999999945e+00 8.001490000000000435e+00 1.301323999999999970e+01
1.759759999999999991e+00 1.142179999999999973e+00 4.122320000000000206e+00 1.749840000000000062e+00 1.272380000000000067e+00 8.504989999999999384e+00 1.743219999999999992e+00 1.375999999999999890e+00 1.290265999999999913e+01 3.534999999999999948e-02 4.238509999999999778e+00 4.129529999999999923e+00 2.741000000000000034e-02 4.352859999999999729e+00 8.505129999999999413e+00 4.148999999999999910e-02 4.464819999999999567e+00 1.289429999999999943e+01 -1.680520000000000014e+00 7.327029999999999710e+00 4.126450000000000173e+00 -1.679890000000000105e+00 7.435629999999999740e+00 8.507289999999999353e+00 -1.692590000000000039e+00 7.553499999999999659e+00 1.290357000000000021e+01 5.253849999999999909e+00 1.152400000000000091e+00 4.133440000000000225e+00 5.235879999999999868e+00 1.261770000000000058e+00 8.522299999999999542e+00 5.243380000000000152e+00 1.390120000000000022e+00 1.291011999999999915e+01 3.528979999999999784e+00 4.227050000000000196e+00 4.123520000000000074e+00 3.528999999999999915e+00 4.347819999999999574e+00 8.511900000000000688e+00 3.527159999999999851e+00 4.471919999999999895e+00 1.289846000000000004e+01 1.815749999999999975e+00 7.304909999999999570e+00 4.123490000000000322e+00 1.817139999999999977e+00 7.440220000000000056e+00 8.512140000000000484e+00 1.813280000000000003e+00 7.554100000000000037e+00 1.289936999999999934e+01 8.735030000000000072e+00 1.145180000000000087e+00 4.121669999999999945e+00 8.742620000000000502e+00 1.265500000000000069e+00 8.505060000000000286e+00 8.732870000000000132e+00 1.367850000000000010e+00 1.290686000000000000e+01 7.022710000000000008e+00 4.217130000000000045e+00 4.112090000000000245e+00 7.022459999999999702e+00 4.350839999999999819e+00 8.511469999999999203e+00 7.022520000000000095e+00 4.462670000000000137e+00 1.290900000000000070e+01 5.290289999999999715e+00 7.304850000000000065e+00 4.120809999999999640e+00 5.299220000000000041e+00 7.448030000000000150e+00 8.521720000000000184e+00 5.303160000000000096e+00 7.547799999999999621e+00 1.291336000000000084e+01 2.627000000000000168e-02 2.115950000000000220e+00 1.933219999999999938e+00 2.361999999999999864e-02 2.222850000000000215e+00 6.307419999999999582e+00 1.362000000000000016e-02 2.345940000000000136e+00 1.069505000000000017e+01 -1.704930000000000057e+00 5.199950000000000294e+00 1.923869999999999969e+00 -1.703060000000000018e+00 5.299990000000000201e+00 6.318159999999999776e+00 -1.699619999999999909e+00 5.437890000000000335e+00 1.070515999999999934e+01 -3.412549999999999972e+00 8.286580000000000723e+00 1.928180000000000005e+00 -3.412640000000000118e+00 8.399960000000000093e+00 6.312210000000000321e+00 -3.429419999999999913e+00 8.537649999999999295e+00 1.070570999999999984e+01 3.511249999999999982e+00 2.107779999999999987e+00 1.932220000000000049e+00 3.512710000000000221e+00 2.229569999999999830e+00 6.311930000000000263e+00 3.502829999999999888e+00 2.348730000000000206e+00 1.070691000000000059e+01 1.792680000000000051e+00 5.194469999999999921e+00 1.930439999999999934e+00 1.798459999999999948e+00 5.324589999999999712e+00 6.332609999999999850e+00 1.786839999999999984e+00 5.448610000000000397e+00 1.070602000000000054e+01 7.363000000000000100e-02 8.278470000000000439e+00 1.930080000000000018e+00 6.196999999999999731e-02 8.400449999999999307e+00 6.323990000000000222e+00 7.523000000000000520e-02 8.521430000000000504e+00 1.070478999999999914e+01 6.987659999999999982e+00 2.114409999999999901e+00 1.928739999999999899e+00 7.002550000000000274e+00 2.220110000000000028e+00 6.315260000000000318e+00 7.003980000000000317e+00 2.355309999999999793e+00 1.070612000000000030e+01 5.283800000000000274e+00 5.199670000000000236e+00 1.942819999999999991e+00 5.274230000000000196e+00 5.327329999999999899e+00 6.327679999999999971e+00 5.289039999999999964e+00 5.441430000000000433e+00 1.070872999999999919e+01 3.560259999999999980e+00 8.274269999999999570e+00 1.931100000000000039e+00 3.566089999999999982e+00 8.400539999999999452e+00 6.317660000000000053e+00 3.561100000000000154e+00 8.527020000000000266e+00 1.070295999999999914e+01 1.752059999999999951e+00 1.083099999999999952e+00 1.924609999999999932e+00 1.748350000000000071e+00 1.199400000000000022e+00 6.316139999999999866e+00 1.754729999999999901e+00 1.326759999999999939e+00 1.070510999999999946e+01 3.823000000000000009e-02 4.168210000000000193e+00 1.934600000000000097e+00 4.687000000000000194e-02 4.289819999999999744e+00 6.316230000000000011e+00 3.583999999999999686e-02 4.412729999999999819e+00 1.070734999999999992e+01 -1.694579999999999975e+00 7.255670000000000286e+00 1.935899999999999954e+00 -1.671210000000000084e+00 7.371069999999999567e+00 6.315080000000000027e+00 -1.693079999999999918e+00 7.499069999999999681e+00 1.069571999999999967e+01 5.242219999999999658e+00 1.093460000000000099e+00 1.923410000000000064e+00 5.250070000000000014e+00 1.195319999999999938e+00 6.317440000000000389e+00 5.257019999999999804e+00 1.332810000000000050e+00 1.069810999999999979e+01 3.536589999999999900e+00 4.166949999999999932e+00 1.921229999999999993e+00 3.534510000000000041e+00 4.276740000000000208e+00 6.327020000000000088e+00 3.529520000000000213e+00 4.406839999999999868e+00 1.070757000000000048e+01 1.803690000000000015e+00 7.250160000000000160e+00 1.922080000000000011e+00 1.810519999999999907e+00 7.374719999999999942e+00 6.318800000000000416e+00 1.801549999999999985e+00 7.491450000000000387e+00 1.070374999999999943e+01 8.739079999999999515e+00 1.087679999999999980e+00 1.926979999999999915e+00 8.736570000000000391e+00 1.206760000000000055e+00 6.318690000000000140e+00 8.740270000000000650e+00 1.325269999999999948e+00 1.070937999999999946e+01 7.020159999999999734e+00 4.162840000000000096e+00 1.914080000000000004e+00 7.024339999999999584e+00 4.298910000000000231e+00 6.319280000000000008e+00 7.031679999999999708e+00 4.402120000000000033e+00 1.071007999999999960e+01 5.304170000000000051e+00 7.248079999999999856e+00 1.934909999999999908e+00 5.307059999999999889e+00 7.370079999999999742e+00 6.310039999999999871e+00 5.302669999999999995e+00 7.491670000000000051e+00 1.071110999999999969e+01 3.116000000000000020e-02 2.177080000000000126e+00 4.125469999999999970e+00 2.375999999999999987e-02 2.287189999999999834e+00 8.508599999999999497e+00 2.341000000000000025e-02 2.419890000000000096e+00 1.290147999999999939e+01 -1.697310000000000096e+00 5.256509999999999572e+00 4.124679999999999680e+00 -1.690639999999999921e+00 5.391670000000000407e+00 8.522869999999999280e+00 -1.700490000000000057e+00 5.500429999999999708e+00 1.290853000000000073e+01 -3.421240000000000059e+00 8.334319999999999951e+00 4.132130000000000081e+00 -3.407880000000000020e+00 8.459400000000000475e+00 8.525029999999999220e+00 -3.416319999999999801e+00 8.583890000000000242e+00 1.290812999999999988e+01 3.504259999999999931e+00 2.175180000000000113e+00 4.121699999999999697e+00 3.509959999999999969e+00 2.292159999999999975e+00 8.514170000000000016e+00 3.513549999999999951e+00 2.412599999999999856e+00 1.290229000000000070e+01 1.786049999999999915e+00 5.270109999999999850e+00 4.125980000000000203e+00 1.785509999999999931e+00 5.371929999999999872e+00 8.512589999999999435e+00 1.793379999999999974e+00 5.497349999999999959e+00 1.290437000000000012e+01 8.644000000000000294e-02 8.335210000000000008e+00 4.140119999999999578e+00 7.402999999999999858e-02 8.470359999999999445e+00 8.521269999999999456e+00 6.757000000000000506e-02 8.578329999999999345e+00 1.290332000000000079e+01 7.002229999999999954e+00 2.170780000000000154e+00 4.126420000000000421e+00 7.000600000000000378e+00 2.291539999999999910e+00 8.514039999999999608e+00 6.999380000000000379e+00 2.418649999999999967e+00 1.290726000000000084e+01 5.270290000000000141e+00 5.241629999999999789e+00 4.127460000000000129e+00 5.287910000000000110e+00 5.364959999999999951e+00 8.521110000000000184e+00 5.288809999999999789e+00 5.499030000000000307e+00 1.288953000000000060e+01 3.557339999999999947e+00 8.332420000000000826e+00 4.115339999999999776e+00 3.556039999999999868e+00 8.472979999999999734e+00 8.514839999999999520e+00 3.565479999999999983e+00 8.589470000000000383e+00 1.290751999999999988e+01
1.814470000000000027e+00 1.055870000000000086e+00 4.342570000000000263e+00 1.782599999999999962e+00 1.062929999999999930e+00 8.976210000000000022e+00 1.762469999999999981e+00 1.093250000000000055e+00 1.359633000000000003e+01 6.131000000000000338e-02 4.176330000000000098e+00 4.358039999999999914e+00 1.967999999999999958e-02 4.177660000000000373e+00 8.975339999999999208e+00 -4.219999999999999793e-03 4.206369999999999720e+00 1.359169999999999945e+01 -1.715659999999999963e+00 7.267719999999999736e+00 4.344829999999999970e+00 -1.749789999999999957e+00 7.284609999999999808e+00 8.978889999999999816e+00 -1.770960000000000090e+00 7.329349999999999810e+00 1.360267999999999944e+01 5.446740000000000137e+00 1.055320000000000036e+00 4.343630000000000102e+00 5.424579999999999735e+00 1.078920000000000101e+00 8.976910000000000167e+00 5.388379999999999725e+00 1.096970000000000001e+00 1.360322999999999993e+01 3.687769999999999992e+00 4.172180000000000000e+00 4.340419999999999945e+00 3.651510000000000034e+00 4.188130000000000130e+00 8.971799999999999997e+00 3.634459999999999802e+00 4.208879999999999733e+00 1.359192999999999962e+01 1.927789999999999893e+00 7.278480000000000061e+00 4.351090000000000124e+00 1.905729999999999924e+00 7.286249999999999893e+00 8.974470000000000169e+00 1.881690000000000085e+00 7.306379999999999875e+00 1.359262999999999977e+01 9.072929999999999495e+00 1.045789999999999997e+00 4.351549999999999585e+00 9.062369999999999592e+00 1.083620000000000028e+00 8.973190000000000666e+00 9.027329999999999188e+00 1.093320000000000070e+00 1.359864999999999924e+01 7.315380000000000216e+00 4.163210000000000299e+00 4.349949999999999761e+00 7.283710000000000129e+00 4.187120000000000175e+00 8.966110000000000468e+00 7.272969999999999935e+00 4.200429999999999886e+00 1.359882999999999953e+01 5.559099999999999930e+00 7.282820000000000071e+00 4.341169999999999973e+00 5.534309999999999619e+00 7.295279999999999987e+00 8.974249999999999616e+00 5.505320000000000213e+00 7.320800000000000196e+00 1.360176000000000052e+01 1.893999999999999850e-02 2.090660000000000185e+00 2.033809999999999896e+00 6.150000000000000085e-03 2.109729999999999883e+00 6.655109999999999637e+00 -1.047000000000000014e-02 2.123190000000000133e+00 1.129790000000000028e+01 -1.728569999999999940e+00 5.195610000000000284e+00 2.046590000000000131e+00 -1.765600000000000058e+00 5.214179999999999815e+00 6.648699999999999832e+00 -1.784680000000000044e+00 5.238800000000000345e+00 1.128238999999999947e+01 -3.504669999999999952e+00 8.304190000000000182e+00 2.033859999999999779e+00 -3.521529999999999827e+00 8.326689999999999259e+00 6.657130000000000436e+00 -3.547579999999999956e+00 8.346170000000000755e+00 1.128833999999999982e+01 3.650560000000000027e+00 2.079759999999999831e+00 2.031179999999999986e+00 3.635060000000000180e+00 2.098259999999999792e+00 6.658369999999999678e+00 3.605710000000000193e+00 2.118339999999999890e+00 1.128558999999999912e+01 1.895310000000000050e+00 5.191060000000000230e+00 2.036360000000000170e+00 1.882409999999999917e+00 5.211719999999999686e+00 6.657750000000000057e+00 1.839730000000000087e+00 5.229560000000000208e+00 1.127078000000000024e+01 1.377299999999999913e-01 8.299269999999999925e+00 2.032010000000000094e+00 1.237000000000000044e-01 8.334279999999999688e+00 6.659089999999999954e+00 8.648000000000000131e-02 8.341540000000000177e+00 1.128232000000000035e+01 7.297439999999999927e+00 2.090479999999999894e+00 2.040059999999999985e+00 7.271539999999999893e+00 2.089749999999999996e+00 6.646180000000000199e+00 7.251459999999999795e+00 2.126860000000000195e+00 1.128927999999999976e+01 5.520419999999999661e+00 5.203579999999999650e+00 2.021539999999999893e+00 5.495330000000000048e+00 5.205400000000000027e+00 6.647859999999999658e+00 5.480319999999999858e+00 5.232680000000000220e+00 1.128448999999999991e+01 3.773060000000000080e+00 8.297100000000000364e+00 2.026609999999999800e+00 3.745249999999999968e+00 8.322300000000000253e+00 6.664789999999999992e+00 3.708450000000000024e+00 8.353460000000000107e+00 1.128500000000000014e+01 1.820000000000000062e+00 1.043979999999999908e+00 2.031639999999999890e+00 1.798589999999999911e+00 1.065730000000000066e+00 6.661050000000000360e+00 1.774210000000000065e+00 1.085169999999999968e+00 1.128667000000000087e+01 6.219999999999999835e-02 4.151629999999999932e+00 2.041459999999999830e+00 4.293999999999999900e-02 4.178969999999999629e+00 6.653459999999999930e+00 1.420000000000000082e-02 4.190999999999999837e+00 1.129387000000000008e+01 -1.687470000000000026e+00 7.264630000000000365e+00 2.026380000000000070e+00 -1.719570000000000043e+00 7.276640000000000441e+00 6.655509999999999593e+00 -1.752159999999999940e+00 7.306029999999999802e+00 1.128599999999999959e+01 5.453890000000000349e+00 1.038100000000000023e+00 2.047719999999999985e+00 5.430839999999999890e+00 1.059220000000000050e+00 6.665630000000000166e+00 5.411889999999999645e+00 1.098240000000000105e+00 1.128863999999999912e+01 3.705880000000000063e+00 4.156130000000000102e+00 2.042100000000000026e+00 3.674430000000000085e+00 4.177360000000000184e+00 6.664450000000000429e+00 3.645980000000000221e+00 4.195770000000000444e+00 1.128712999999999944e+01 1.927259999999999973e+00 7.278430000000000177e+00 2.041729999999999823e+00 1.914020000000000055e+00 7.281109999999999971e+00 6.655800000000000161e+00 1.886230000000000073e+00 7.309059999999999668e+00 1.128672000000000075e+01 9.091939999999999245e+00 1.047320000000000029e+00 2.037619999999999987e+00 9.073259999999999437e+00 1.055830000000000046e+00 6.663739999999999775e+00 9.033379999999999299e+00 1.080100000000000060e+00 1.128529999999999944e+01 7.319840000000000124e+00 4.144899999999999807e+00 2.044309999999999850e+00 7.305439999999999934e+00 4.175510000000000055e+00 6.661909999999999776e+00 7.277619999999999756e+00 4.199729999999999741e+00 1.127604999999999968e+01 5.576850000000000307e+00 7.256009999999999849e+00 2.042520000000000113e+00 5.541369999999999685e+00 7.290799999999999947e+00 6.657440000000000246e+00 5.523360000000000269e+00 7.307970000000000077e+00 1.128922999999999988e+01 2.457000000000000156e-02 2.088109999999999911e+00 4.359449999999999825e+00 -4.159999999999999636e-03 2.123800000000000132e+00 8.968540000000000845e+00 -3.951000000000000345e-02 2.127369999999999983e+00 1.359872999999999976e+01 -1.743260000000000032e+00 5.207040000000000113e+00 4.353189999999999671e+00 -1.761309999999999931e+00 5.223679999999999879e+00 8.988440000000000651e+00 -1.791260000000000074e+00 5.235299999999999621e+00 1.360172999999999988e+01 -3.512150000000000105e+00 8.316549999999999443e+00 4.348099999999999632e+00 -3.545570000000000110e+00 8.325469999999999260e+00 8.962160000000000792e+00 -3.564750000000000085e+00 8.350929999999999964e+00 1.358567999999999998e+01 3.640789999999999971e+00 2.095800000000000107e+00 4.349160000000000359e+00 3.624239999999999906e+00 2.105799999999999894e+00 8.961080000000000823e+00 3.611639999999999961e+00 2.125929999999999875e+00 1.359098999999999968e+01 1.885880000000000001e+00 5.205890000000000128e+00 4.362020000000000231e+00 1.865140000000000020e+00 5.221400000000000041e+00 8.983290000000000219e+00 1.844340000000000090e+00 5.243820000000000370e+00 1.358893999999999913e+01 1.250799999999999967e-01 8.316390000000000171e+00 4.350760000000000183e+00 8.869000000000000494e-02 8.340889999999999915e+00 8.973720000000000141e+00 7.066000000000000059e-02 8.355270000000000863e+00 1.359784999999999933e+01 7.280940000000000190e+00 2.091880000000000184e+00 4.351250000000000284e+00 7.246699999999999697e+00 2.105550000000000033e+00 8.976290000000000546e+00 7.222719999999999807e+00 2.130149999999999988e+00 1.360021000000000058e+01 5.513910000000000089e+00 5.189580000000000304e+00 4.346020000000000216e+00 5.484490000000000087e+00 5.237820000000000142e+00 8.965830000000000410e+00 5.474420000000000286e+00 5.248120000000000118e+00 1.360487999999999964e+01 3.759110000000000174e+00 8.317270000000000607e+00 4.356429999999999580e+00 3.741019999999999790e+00 8.330610000000000070e+00 8.981170000000000542e+00 3.706949999999999967e+00 8.351010000000000488e+00 1.360084999999999944e+01