-9.695406770600000073e+02
-9.661178056500000366e+02
-9.794340153299999656e+02
-9.710966442100000222e+02
-9.786007267600000432e+02
-9.783076086900000519e+02
-9.772844235899999603e+02
-9.798888723500000424e+02
-9.824534654699999692e+02
-9.793803118299999824e+02
-9.812157906300000150e+02
-9.826250338500000225e+02
