-4.037490000000000245e-01 -4.746040000000000258e-01 4.989299999999999985e-02 -3.498129999999999851e-01 -3.219509999999999872e-01 -3.533700000000000035e-02 -6.497279999999999722e-01 -1.901110000000000022e-01 -8.398400000000000309e-02 -4.201610000000000067e-01 -2.627129999999999743e-01 4.728799999999999670e-02 -4.408980000000000121e-01 -5.106089999999999796e-01 -6.293799999999999395e-02 -3.853219999999999978e-01 -2.705520000000000147e-01 -2.035800000000000110e-02 -4.559320000000000039e-01 -2.824030000000000151e-01 -4.394999999999999601e-03 -5.516349999999999865e-01 -4.920370000000000021e-01 6.201299999999999868e-02 -5.171149999999999913e-01 -3.060809999999999920e-01 -6.940000000000000335e-02 -4.855229999999999824e-01 -3.756849999999999912e-01 5.575200000000000294e-02 -7.344220000000000192e-01 -1.860090000000000077e-01 -1.669899999999999857e-02 -1.447450000000000125e-01 -9.958899999999999697e-02 -4.853299999999999975e-02 -6.930180000000000229e-01 -3.112699999999999842e-02 9.072500000000000009e-02 -3.211080000000000045e-01 -5.222369999999999512e-01 -2.050000000000000086e-02 -5.161259999999999737e-01 -1.570479999999999932e-01 -1.981199999999999975e-02 -3.517210000000000059e-01 -5.118059999999999832e-01 1.697790000000000132e-01 -1.542020000000000057e-01 -3.397229999999999972e-01 1.279460000000000042e-01 -2.581240000000000201e-01 -3.009629999999999805e-01 -1.505259999999999931e-01 -4.248390000000000222e-01 -6.055350000000000454e-01 8.898499999999999466e-02 -1.659339999999999982e-01 -1.982500000000000095e-01 1.330179999999999974e-01 -4.646120000000000250e-01 -2.773769999999999847e-01 -4.903199999999999920e-02 -5.349930000000000518e-01 -7.972400000000000320e-02 1.471750000000000003e-01 -3.820810000000000040e-01 -1.997190000000000076e-01 8.847800000000000109e-02 -6.250890000000000057e-01 -4.416579999999999950e-01 -9.152999999999999678e-03 -6.283539999999999681e-01 -3.208579999999999766e-01 5.167599999999999971e-02 -2.383699999999999986e-01 -9.576999999999999402e-02 -4.865099999999999980e-02 -2.029880000000000018e-01 -1.580419999999999880e-01 -1.723959999999999937e-01 4.046319999999999917e-01 4.964649999999999896e-01 -7.732700000000000684e-02 5.676999999999999824e-01 2.660040000000000182e-01 2.325730000000000020e-01 4.980530000000000235e-01 2.331910000000000094e-01 -6.893299999999999428e-02 4.328649999999999998e-01 1.125059999999999949e-01 7.948000000000000204e-03 4.135499999999999732e-01 1.039899999999999991e-01 5.773500000000000160e-02 5.016479999999999828e-01 3.580389999999999961e-01 -1.491220000000000045e-01 6.154110000000000413e-01 1.926080000000000014e-01 1.237619999999999970e-01 2.466230000000000089e-01 4.866219999999999990e-01 1.463629999999999931e-01 2.992619999999999725e-01 1.181699999999999938e-02 -1.589240000000000097e-01 2.381689999999999918e-01 3.437720000000000220e-01 3.868499999999999717e-02 5.683799999999999963e-02 3.368519999999999848e-01 2.959099999999999925e-02 3.861359999999999792e-01 3.203429999999999889e-01 -1.256230000000000124e-01 5.701429999999999554e-01 2.708450000000000024e-01 5.427699999999999886e-02 2.244400000000000006e-01 3.567359999999999975e-01 -4.304399999999999893e-02 4.851949999999999874e-01 3.949619999999999798e-01 1.181199999999999958e-02 4.303589999999999915e-01 2.677579999999999960e-01 2.483099999999999891e-02 3.055869999999999975e-01 8.017499999999999627e-02 -1.809030000000000082e-01 5.892420000000000435e-01 9.781399999999999817e-02 4.336700000000000277e-02 5.263649999999999718e-01 2.738769999999999816e-01 -1.226519999999999971e-01 4.606239999999999779e-01 2.093659999999999966e-01 2.488200000000000134e-02 5.146469999999999656e-01 2.588529999999999998e-01 3.209499999999999853e-02 4.267130000000000090e-01 2.389129999999999865e-01 1.615050000000000097e-01 1.691489999999999938e-01 2.292859999999999898e-01 -4.654599999999999710e-02 4.240160000000000040e-01 4.759410000000000029e-01 -5.319299999999999723e-02 2.633920000000000150e-01 2.219899999999999929e-01 3.528499999999999692e-02 4.603240000000000109e-01 3.108239999999999892e-01 -7.100000000000000191e-04 5.530239999999999601e-01 3.666989999999999972e-01 -2.523200000000000096e-02 -1.713109999999999911e-01 -3.282689999999999775e-01 -1.511770000000000058e-01 -3.146729999999999805e-01 -1.519550000000000067e-01 -1.346279999999999977e-01 -5.587929999999999842e-01 -1.980530000000000068e-01 3.059100000000000014e-02 -9.108490000000000197e-01 -3.946939999999999893e-01 -3.093279999999999919e-01 -6.106399999999999606e-01 -1.955300000000000094e-01 -1.683050000000000102e-01 -5.277420000000000444e-01 -2.102209999999999912e-01 -2.645700000000000135e-02 -6.002939999999999943e-01 -2.480330000000000035e-01 -1.541079999999999950e-01 -2.035669999999999980e-01 -4.843640000000000168e-01 1.206199999999999981e-02 -5.010310000000000041e-01 -3.602449999999999819e-01 -6.527299999999999769e-02 -6.901030000000000220e-01 -4.633220000000000116e-01 9.520699999999999996e-02 -3.462799999999999767e-01 -4.388960000000000083e-01 -1.030800000000000050e-01 -4.782159999999999744e-01 -3.154930000000000234e-01 -3.227800000000000114e-02 -5.455100000000000504e-01 -3.718810000000000171e-01 -1.235379999999999950e-01 -1.005420000000000064e-01 -2.921369999999999800e-01 1.767960000000000087e-01 -5.763779999999999459e-01 -3.873759999999999981e-01 -2.420999999999999975e-03 -6.417509999999999604e-01 -2.569690000000000030e-01 -8.458400000000000640e-02 -5.255649999999999489e-01 -2.202620000000000133e-01 -5.166899999999999965e-02 -9.137189999999999479e-01 -4.499130000000000074e-01 -1.069200000000000012e-01 -6.777229999999999643e-01 -3.178599999999999759e-01 3.177100000000000063e-02 -8.035860000000000225e-01 -5.045690000000000452e-01 8.156999999999999321e-03 -7.670270000000000143e-01 -4.302170000000000161e-01 1.024399999999999963e-02 -3.966609999999999858e-01 -2.536109999999999753e-01 -5.323999999999999740e-03 -3.729830000000000090e-01 -5.238999999999999733e-03 -2.788490000000000135e-01 -5.954369999999999941e-01 -4.187770000000000103e-01 3.563999999999999894e-03 -4.714300000000000157e-01 -3.358849999999999891e-01 -2.977099999999999885e-02 -7.011990000000000167e-01 -6.061290000000000289e-01 -2.641720000000000179e-01 -4.631279999999999841e-01 -3.389980000000000215e-01 7.943400000000000460e-02 5.788809999999999789e-01 4.861989999999999923e-01 -2.108000000000000151e-02 3.952780000000000182e-01 5.768619999999999859e-01 -4.252000000000000224e-02 6.916930000000000023e-01 3.073150000000000048e-01 3.274540000000000228e-01 4.259850000000000025e-01 2.070970000000000033e-01 1.146940000000000043e-01 4.996470000000000078e-01 5.187850000000000517e-01 -4.979999999999999618e-04 8.866000000000000547e-01 4.544790000000000219e-01 3.061479999999999757e-01 5.586520000000000374e-01 5.565099999999999492e-01 -8.891999999999999904e-02 5.560019999999999962e-01 3.407830000000000026e-01 9.428899999999999781e-02 3.794779999999999820e-01 2.470890000000000031e-01 1.702309999999999934e-01 7.171199999999999797e-01 -4.970000000000000112e-02 -2.083639999999999937e-01 7.383469999999999756e-01 5.929170000000000273e-01 8.280400000000000260e-02 4.855459999999999776e-01 2.734579999999999789e-01 2.143710000000000060e-01 8.393580000000000485e-01 4.794379999999999753e-01 -7.475099999999999800e-02 2.855039999999999800e-01 3.296870000000000078e-01 1.076509999999999967e-01 4.543340000000000156e-01 3.868849999999999789e-01 2.317800000000000069e-02 6.013049999999999784e-01 6.881869999999999932e-01 6.814800000000000024e-02 5.364280000000000159e-01 3.986179999999999723e-01 2.909000000000000127e-03 6.638129999999999864e-01 2.013199999999999990e-01 1.543760000000000132e-01 4.627149999999999874e-01 3.264699999999999824e-01 -8.399900000000000422e-02 5.464919999999999778e-01 3.192329999999999890e-01 1.793799999999999908e-02 3.817989999999999995e-01 3.240439999999999987e-01 3.583900000000000280e-02 8.026969999999999938e-01 3.016460000000000252e-01 1.176029999999999992e-01 5.461510000000000531e-01 1.142370000000000052e-01 -1.137210000000000026e-01 5.965340000000000087e-01 5.109799999999999759e-02 8.876699999999999868e-02 5.839239999999999986e-01 4.904549999999999743e-01 -1.807800000000000032e-02 2.769179999999999975e-01 3.192459999999999742e-01 9.251999999999999807e-03 4.114329999999999932e-01 4.324729999999999963e-01 8.681700000000000528e-02
3.906099999999999850e-02 -3.382560000000000011e-01 -1.606399999999999842e-02 3.183529999999999971e-01 -4.508650000000000158e-01 7.927499999999999825e-02 3.469409999999999994e-01 -1.895300000000000110e-02 -3.582300000000000068e-02 2.060670000000000002e-01 -3.376009999999999844e-01 -7.301100000000000645e-02 2.814309999999999867e-01 -3.638890000000000180e-01 9.347500000000000253e-02 2.634399999999999936e-02 -1.247189999999999965e-01 7.440299999999999692e-02 2.112930000000000086e-01 -5.124859999999999971e-01 1.703199999999999853e-02 2.263580000000000036e-01 -2.175169999999999881e-01 1.206099999999999950e-01 2.786009999999999875e-01 -2.874650000000000261e-01 -1.058179999999999954e-01 -6.188899999999999957e-02 -4.932099999999999818e-01 -7.164800000000000335e-02 3.461589999999999945e-01 -1.590090000000000114e-01 -5.213399999999999979e-02 1.923870000000000025e-01 -3.464969999999999994e-01 -1.706469999999999931e-01 -1.421860000000000068e-01 -2.477759999999999962e-01 2.482600000000000084e-02 1.002630000000000049e-01 -3.120430000000000148e-01 1.128320000000000017e-01 2.400980000000000059e-01 -3.177269999999999817e-01 -1.043000000000000003e-02 -1.554999999999999959e-02 -1.707490000000000119e-01 4.525300000000000156e-02 -1.513440000000000063e-01 -3.972899999999999765e-01 -8.134000000000000605e-03 -7.309000000000000392e-03 -2.478849999999999942e-01 2.242900000000000102e-02 3.571920000000000095e-01 -2.968390000000000195e-01 -5.948699999999999821e-02 8.786999999999999672e-03 -1.078070000000000001e-01 1.013440000000000035e-01 2.491120000000000001e-01 2.219440000000000024e-01 -3.840299999999999964e-02 1.112510000000000027e-01 -1.178700000000000060e-02 1.657399999999999984e-01 2.635609999999999897e-01 -3.179080000000000239e-01 6.562900000000000678e-02 1.545009999999999994e-01 -1.169489999999999974e-01 -1.713220000000000021e-01 2.916309999999999736e-01 -2.680250000000000132e-01 3.842500000000000082e-02 2.407590000000000008e-01 -5.164459999999999607e-01 -4.816200000000000342e-02 1.436250000000000027e-01 -1.717539999999999900e-01 -1.195810000000000067e-01 -2.966750000000000220e-01 2.720690000000000053e-01 -8.469899999999999651e-02 -2.125140000000000085e-01 5.028540000000000232e-01 5.913100000000000300e-02 -5.590200000000000030e-02 4.685349999999999793e-01 1.339700000000000057e-01 -9.610000000000000486e-03 1.806599999999999873e-01 4.456000000000000238e-02 5.197800000000000337e-02 5.490369999999999973e-01 -2.740199999999999927e-02 -1.214049999999999990e-01 3.728600000000000247e-01 4.417200000000000293e-02 -3.427499999999999991e-01 2.101919999999999900e-01 6.240899999999999920e-02 -8.888699999999999379e-02 1.780619999999999981e-01 7.878300000000000580e-02 5.431799999999999823e-02 3.729400000000000076e-02 1.455299999999999996e-02 -2.545490000000000252e-01 3.931569999999999787e-01 -1.026760000000000034e-01 -1.665719999999999978e-01 1.728580000000000116e-01 1.076140000000000013e-01 8.088199999999999557e-02 3.483459999999999890e-01 2.443000000000000033e-02 -1.121680000000000038e-01 2.111929999999999918e-01 -1.005900000000000023e-02 -1.315000000000000058e-01 1.392400000000000027e-01 -1.584099999999999953e-01 -2.316599999999999909e-02 -2.077800000000000133e-02 -6.918999999999999803e-03 -2.318359999999999865e-01 3.171200000000000130e-01 1.637999999999999873e-02 1.523249999999999882e-01 2.206990000000000063e-01 -2.375400000000000081e-02 -3.550429999999999975e-01 3.512899999999999912e-01 3.661299999999999971e-02 1.610129999999999895e-01 1.827120000000000133e-01 -8.113700000000000079e-02 -2.087150000000000116e-01 5.649720000000000297e-01 1.421689999999999898e-01 -9.101700000000000068e-02 2.562240000000000073e-01 1.058000000000000086e-02 -9.161900000000000599e-02 1.340999999999999970e-01 -2.051020000000000065e-01 5.580700000000000244e-02 1.302099999999999959e-02 -5.726500000000000340e-02 -9.778299999999999492e-02 3.773499999999999771e-02 2.667200000000000126e-02 -7.345100000000000240e-02 3.805769999999999986e-01 -1.615700000000000122e-02 -1.558440000000000103e-01 2.675239999999999840e-01 -5.736700000000000133e-02 -1.012850000000000000e-01 1.748560000000000114e-01 9.736100000000000310e-02 2.795659999999999812e-01 -3.692059999999999786e-01 1.714199999999999890e-01 4.420620000000000105e-01 -3.692980000000000151e-01 4.936999999999999722e-02 4.677800000000000014e-02 -2.928959999999999897e-01 6.694300000000000250e-02 1.142490000000000033e-01 -2.474729999999999985e-01 -1.794000000000000108e-02 6.731000000000000004e-03 -4.332349999999999812e-01 1.106270000000000031e-01 2.009289999999999965e-01 -4.670099999999999807e-01 8.014000000000000290e-03 5.006760000000000099e-01 -3.047250000000000236e-01 5.254000000000000337e-02 -1.444950000000000123e-01 -4.368000000000000216e-01 8.625399999999999734e-02 3.010099999999999998e-01 -3.094830000000000081e-01 3.492439999999999989e-01 2.119080000000000130e-01 -7.117449999999999610e-01 3.083429999999999782e-01 2.879400000000000015e-02 -1.268209999999999893e-01 -2.471100000000000033e-02 -9.547700000000000631e-02 -4.881380000000000163e-01 2.770199999999999885e-01 1.823899999999999827e-02 -2.971030000000000060e-01 1.882649999999999879e-01 4.283000000000000348e-03 -1.030660000000000048e-01 -1.073220000000000007e-01 4.623900000000000232e-02 -2.167320000000000080e-01 -5.152000000000000329e-03 2.189270000000000105e-01 -3.087280000000000024e-01 5.932400000000000173e-02 2.666760000000000241e-01 -2.715359999999999996e-01 2.091929999999999901e-01 4.324049999999999838e-01 -1.994900000000000007e-01 9.885800000000000143e-02 9.657699999999999618e-02 -3.911680000000000157e-01 1.954160000000000064e-01 2.795699999999999852e-01 -4.683729999999999838e-01 -1.047960000000000003e-01 1.380919999999999925e-01 -4.054070000000000173e-01 -8.847999999999999962e-03 7.787199999999999678e-02 -1.968810000000000004e-01 4.312619999999999787e-01 -4.359500000000000181e-02 -6.236509999999999554e-01 -1.182599999999999971e-02 2.256299999999999972e-02 -1.829510000000000025e-01 -5.459699999999999970e-02 1.312969999999999970e-01 -2.671129999999999893e-01 6.497000000000000171e-03 -1.861499999999999960e-02 -1.588110000000000077e-01 3.105180000000000162e-01 -3.319799999999999834e-02 -1.107039999999999969e-01 -9.416199999999999570e-02 -4.597530000000000228e-01 1.843079999999999996e-01 -2.809299999999999992e-02 -3.760399999999999854e-01 5.009400000000000519e-01 -2.352900000000000130e-02 -3.962999999999999856e-01 1.058390000000000025e-01 -7.126300000000000689e-02 -3.999070000000000125e-01 3.637909999999999755e-01 -6.353799999999999726e-02 -3.974980000000000180e-01 1.794700000000000115e-02 -2.607479999999999798e-01 -6.052699999999999747e-02 3.393930000000000002e-01 -1.265070000000000083e-01 -2.388190000000000035e-01 4.848620000000000152e-01 -1.342990000000000017e-01 -5.496579999999999799e-01 4.896340000000000137e-01 -3.532120000000000259e-01 -3.669649999999999856e-01 2.875249999999999750e-01 -1.151299999999999962e-01 3.423699999999999660e-02 2.079120000000000135e-01 4.327799999999999703e-02 -2.903609999999999802e-01 3.054749999999999965e-01 -1.141479999999999995e-01 -3.983829999999999871e-01 2.811420000000000030e-01 -9.764299999999999369e-02 1.441969999999999918e-01 -2.176700000000000162e-02 -2.762399999999999925e-02 -1.291400000000000013e-02 5.246549999999999825e-01 -1.596799999999999956e-02 -1.851949999999999985e-01 4.126009999999999955e-01 -9.461500000000000465e-02 -3.636670000000000180e-01 6.344400000000000039e-01 -4.147069999999999923e-01 -8.902300000000000491e-02 1.248340000000000005e-01 -1.421340000000000103e-01 -1.237589999999999940e-01 4.160409999999999942e-01 -5.164500000000000340e-02 -1.320850000000000080e-01 3.619539999999999980e-01 -7.201799999999999868e-02 -8.094099999999999906e-02 3.534450000000000092e-01 -1.824429999999999941e-01 -9.661599999999999355e-02 5.495099999999999985e-02 -8.780499999999999416e-02 1.823110000000000008e-01 4.675400000000000111e-01 -8.964400000000000146e-02 -2.466609999999999914e-01 8.126729999999999787e-01 -1.453369999999999940e-01 -2.403990000000000016e-01 3.321569999999999800e-01 1.757549999999999946e-01 9.851999999999999647e-03 5.904430000000000511e-01 1.040819999999999940e-01 1.462549999999999961e-01 1.346449999999999869e-01 -7.262699999999999712e-02 -1.309730000000000061e-01 4.258999999999999765e-03 -1.372490000000000099e-01
1.564979999999999982e-01 1.196409999999999973e-01 7.551700000000000079e-02 2.757709999999999884e-01 2.278999999999999915e-01 -1.061249999999999971e-01 2.096240000000000048e-01 1.279329999999999912e-01 1.597000000000000156e-02 8.275399999999999423e-02 -9.733400000000000385e-02 4.147999999999999778e-03 3.056070000000000175e-01 2.901079999999999770e-01 -5.839699999999999752e-02 2.692829999999999946e-01 8.285700000000000010e-02 1.233199999999999921e-02 2.914930000000000021e-01 3.221559999999999979e-01 8.031399999999999650e-02 3.624589999999999756e-01 3.116450000000000053e-01 -9.334199999999999442e-02 3.708659999999999735e-01 -1.210799999999999932e-01 -3.778999999999999720e-02 5.827100000000000335e-02 9.901000000000000079e-02 -2.076700000000000074e-02 6.687999999999999501e-02 3.280299999999999883e-02 -2.642399999999999957e-02 3.558200000000000252e-01 -1.564000000000000112e-02 -5.583199999999999968e-02 1.113350000000000034e-01 -4.121999999999999970e-02 3.994700000000000334e-02 3.229839999999999933e-01 -1.183200000000000050e-02 -3.229400000000000326e-02 2.940960000000000241e-01 3.599499999999999922e-02 -3.315099999999999991e-02 5.771899999999999947e-02 1.668969999999999898e-01 1.223499999999999935e-02 1.213499999999999995e-02 3.437950000000000172e-01 -3.241900000000000337e-02 -3.652899999999999897e-02 2.920070000000000165e-01 -1.626599999999999921e-02 3.621500000000000274e-01 2.594090000000000007e-01 -1.102999999999999987e-02 8.523000000000000020e-02 -1.103000000000000031e-03 -1.248400000000000030e-02 9.166199999999999348e-02 1.292049999999999865e-01 -2.300000000000000070e-04 1.657830000000000137e-01 1.387420000000000042e-01 -5.025199999999999806e-02 2.130579999999999974e-01 1.100280000000000008e-01 2.408499999999999877e-02 1.185269999999999935e-01 1.586720000000000075e-01 8.560999999999999166e-03 1.410129999999999995e-01 -6.241499999999999826e-02 1.104649999999999938e-01 8.355200000000000127e-02 1.646350000000000036e-01 -3.843599999999999794e-02 1.688340000000000118e-01 2.120199999999999863e-02 -1.401850000000000041e-01 -1.153590000000000032e-01 -2.701450000000000240e-01 6.028599999999999931e-02 -1.784479999999999955e-01 -1.914220000000000088e-01 -9.917000000000000468e-03 -4.013010000000000188e-01 -1.685099999999999931e-01 -9.418600000000000583e-02 -3.296009999999999773e-01 -2.062680000000000069e-01 -9.603000000000000425e-02 -7.214099999999999679e-02 -1.587349999999999872e-01 7.177200000000000246e-02 -2.008240000000000025e-01 -2.019269999999999954e-01 6.793999999999999692e-03 3.027499999999999983e-02 -1.388600000000000112e-01 4.238900000000000307e-02 -1.635669999999999902e-01 -1.977959999999999996e-01 2.057200000000000001e-02 -2.334029999999999994e-01 -2.165489999999999915e-01 -3.539799999999999891e-02 6.629999999999999609e-03 -1.203660000000000008e-01 6.119299999999999740e-02 -1.995609999999999884e-01 -8.038399999999999712e-02 2.889900000000000108e-02 -2.451599999999999960e-02 -4.286199999999999732e-02 -3.791100000000000025e-02 -8.459200000000000053e-02 -3.056599999999999942e-02 -8.621999999999999456e-03 -2.646310000000000051e-01 -1.100570000000000020e-01 -1.391000000000000049e-02 -2.852999999999999980e-02 -8.039899999999999824e-02 8.782199999999999729e-02 -2.045889999999999931e-01 3.032699999999999979e-02 2.143199999999999966e-02 -3.504700000000000037e-01 -3.375940000000000052e-01 2.898900000000000088e-02 -1.891899999999999971e-01 6.510000000000000508e-02 1.848000000000000033e-03 -3.226499999999999924e-01 -3.160729999999999928e-01 -3.570700000000000263e-02 -1.977980000000000016e-01 -1.479999999999999979e-03 1.253410000000000080e-01 -3.495750000000000246e-01 -1.301940000000000042e-01 -5.845600000000000102e-02 4.340900000000000314e-02 -4.074340000000000184e-01 1.003499999999999948e-01 -2.164999999999999911e-02 7.089399999999999868e-02 7.625899999999999346e-02 -1.694330000000000003e-01 -3.320700000000000041e-02 -4.203099999999999892e-02 -2.135759999999999881e-01 1.130199999999999955e-02 6.944000000000000172e-02 -1.168789999999999968e-01 -1.593199999999999894e-01 -1.512299999999999929e-02 4.537100000000000161e-02 -2.914820000000000189e-01 -5.775399999999999978e-02 1.937589999999999868e-01 1.164749999999999952e-01 -8.493199999999999361e-02 2.506800000000000139e-01 9.208099999999999619e-02 3.278500000000000164e-02 2.252109999999999945e-01 1.032829999999999998e-01 -1.349200000000000052e-02 3.218110000000000137e-01 2.792749999999999955e-01 -2.628700000000000134e-02 1.338769999999999960e-01 1.811550000000000105e-01 9.056200000000000361e-02 1.629940000000000000e-01 1.429749999999999910e-01 5.420999999999999604e-03 -1.437170000000000114e-01 1.773430000000000006e-01 7.648000000000000631e-02 1.465599999999999958e-01 3.038750000000000062e-01 3.279200000000000170e-02 2.156500000000000083e-01 2.038709999999999967e-01 1.767600000000000074e-02 2.083019999999999872e-01 2.994129999999999847e-01 -5.614199999999999746e-02 3.294199999999999906e-01 2.902250000000000107e-01 -1.474040000000000072e-01 1.426280000000000048e-01 -1.039889999999999981e-01 -3.101599999999999843e-02 -1.497469999999999912e-01 1.544510000000000050e-01 -1.292649999999999910e-01 1.339279999999999915e-01 4.442499999999999921e-02 -8.002999999999999697e-03 1.970280000000000087e-01 9.703100000000000613e-02 1.059999999999999961e-03 4.835099999999999953e-01 -2.305230000000000057e-01 -5.746300000000000019e-02 2.151000000000000134e-01 2.239109999999999989e-01 1.682359999999999967e-01 1.264859999999999873e-01 6.449799999999999978e-02 -2.673000000000000029e-02 2.387299999999999978e-01 1.370299999999999990e-02 -3.439000000000000216e-03 1.194309999999999955e-01 3.130890000000000062e-01 2.703699999999999853e-02 4.978000000000000203e-01 3.350170000000000092e-01 3.751600000000000074e-02 4.292560000000000264e-01 4.513070000000000137e-01 -6.561000000000000165e-02 1.810239999999999905e-01 4.050800000000000234e-02 3.329800000000000121e-02 2.486649999999999971e-01 1.490299999999999958e-01 9.599199999999999400e-02 6.019999999999999657e-02 4.663479999999999848e-01 -4.744799999999999712e-02 2.525089999999999835e-01 -1.203300000000000029e-02 -1.142289999999999972e-01 6.983499999999999430e-02 1.552860000000000074e-01 5.944300000000000278e-02 -4.511459999999999915e-01 -4.317999999999999790e-03 -1.243409999999999932e-01 -2.884650000000000269e-01 -3.592130000000000045e-01 1.164639999999999981e-01 -1.576899999999999968e-01 -8.390599999999999448e-02 -3.310599999999999654e-02 -3.069100000000000161e-01 -2.683260000000000089e-01 -1.169700000000000045e-01 -4.553840000000000110e-01 -2.768209999999999837e-01 -1.267290000000000083e-01 -3.628129999999999966e-01 2.723000000000000073e-02 1.299900000000000014e-02 -1.235600000000000032e-01 -2.156369999999999953e-01 -1.034280000000000060e-01 -2.523399999999999949e-02 -2.777100000000000055e-02 1.139130000000000004e-01 -2.203660000000000063e-01 5.062999999999999792e-03 1.949170000000000069e-01 -9.763800000000000257e-02 -1.623670000000000113e-01 -3.153500000000000053e-02 -3.491770000000000151e-01 -2.307199999999999876e-02 1.672359999999999958e-01 -6.082560000000000189e-01 3.323199999999999765e-02 1.339170000000000083e-01 -1.178769999999999957e-01 -1.212860000000000049e-01 -2.382160000000000111e-01 -3.898610000000000131e-01 -1.466890000000000138e-01 -4.377299999999999941e-02 -3.563479999999999981e-01 -2.307760000000000089e-01 2.260320000000000107e-01 -2.483239999999999892e-01 -2.116929999999999923e-01 3.308200000000000029e-02 -1.351999999999999903e-03 -3.894009999999999971e-01 6.398900000000000421e-02 -1.048069999999999974e-01 -2.189919999999999922e-01 -6.248900000000000288e-02 -1.706409999999999871e-01 -1.850479999999999903e-01 8.179100000000000259e-02 8.234600000000000253e-02 4.616599999999999870e-02 -8.835099999999999898e-02 -1.547199999999999964e-02 -9.171899999999999498e-02 3.207100000000000228e-02 -9.794700000000000628e-02 1.834109999999999907e-01 1.022249999999999964e-01 -1.082930000000000004e-01 -4.516629999999999812e-01 8.714299999999999824e-02 -2.570000000000000062e-01 -2.048000000000000098e-01 -6.893399999999999528e-02 -1.829919999999999880e-01 -2.399000000000000021e-01 -1.741340000000000110e-01 -3.882619999999999960e-01 -1.436999999999999909e-03 -4.177600000000000063e-02 -1.777380000000000071e-01 -1.023120000000000002e-01 1.046750000000000042e-01