6.487017757067236268e+00 -2.691310715941952080e-21 0.000000000000000000e+00 -3.243560782957457977e+00 5.617892200321909613e+00 0.000000000000000000e+00 0.000000000000000000e+00 0.000000000000000000e+00 8.354624536999999407e+00
6.620824437999999645e+00 0.000000000000000000e+00 0.000000000000000000e+00 -3.423076503999999964e+00 5.641048708999999661e+00 0.000000000000000000e+00 2.296636390000000028e-01 -1.624478219999999917e-01 8.322889123999999583e+00
6.546211899000000223e+00 0.000000000000000000e+00 0.000000000000000000e+00 -3.159614771000000211e+00 5.568988273000000433e+00 0.000000000000000000e+00 1.982218629999999981e-01 -1.933650490000000111e-01 8.331754281000000262e+00
6.609387564999999576e+00 0.000000000000000000e+00 0.000000000000000000e+00 -3.295115990999999855e+00 5.516016019000000270e+00 0.000000000000000000e+00 1.412854799999999945e-02 -5.809294899999999789e-02 8.108212578999999920e+00
6.343955721000000381e+00 0.000000000000000000e+00 0.000000000000000000e+00 -3.152098640999999812e+00 5.751557880000000011e+00 0.000000000000000000e+00 2.470039639999999925e-01 -1.573838529999999902e-01 8.575179200999999196e+00
6.654447155999999808e+00 0.000000000000000000e+00 0.000000000000000000e+00 -3.173033712000000062e+00 5.455404032999999764e+00 0.000000000000000000e+00 2.258360409999999874e-01 2.359916930000000024e-01 8.538345831999999191e+00
6.313054624000000281e+00 0.000000000000000000e+00 0.000000000000000000e+00 -3.242852704000000141e+00 5.568349356999999777e+00 0.000000000000000000e+00 2.245202669999999956e-01 1.355312270000000041e-01 8.396346527000000393e+00
6.508540832000000442e+00 0.000000000000000000e+00 0.000000000000000000e+00 -3.133638175000000192e+00 5.556428998000000341e+00 0.000000000000000000e+00 -2.363616520000000054e-01 -7.869460699999999975e-02 8.409836693999999113e+00
6.586397577999999697e+00 0.000000000000000000e+00 0.000000000000000000e+00 -3.262356732999999842e+00 5.706834941000000327e+00 0.000000000000000000e+00 -2.130723899999999865e-02 -1.283412339999999985e-01 8.540285789000000349e+00
6.602176076000000116e+00 0.000000000000000000e+00 0.000000000000000000e+00 -3.144578107000000067e+00 5.665190818000000128e+00 0.000000000000000000e+00 5.699406499999999653e-02 2.159944999999999921e-02 8.446113133000000772e+00
6.642422394999999646e+00 0.000000000000000000e+00 0.000000000000000000e+00 -3.356037960000000098e+00 5.701304969999999805e+00 0.000000000000000000e+00 9.770140300000000610e-02 3.559941999999999968e-02 8.539604359000000144e+00
6.552543189067917773e+00 -4.120644797607802785e-21 0.000000000000000000e+00 -3.276324023898015803e+00 5.674638586820105246e+00 0.000000000000000000e+00 0.000000000000000000e+00 0.000000000000000000e+00 8.439014683999999988e+00
6.397191061000000012e+00 0.000000000000000000e+00 0.000000000000000000e+00 -3.027638544000000209e+00 5.767396068000000042e+00 0.000000000000000000e+00 2.241563520000000032e-01 -2.142097229999999908e-01 8.332910890000000848e+00
6.406489432999999956e+00 0.000000000000000000e+00 0.000000000000000000e+00 -3.103250823000000214e+00 5.646780761999999676e+00 0.000000000000000000e+00 -6.200498200000000015e-02 3.898855799999999955e-02 8.189254765999999464e+00
6.503440555000000067e+00 0.000000000000000000e+00 0.000000000000000000e+00 -3.319459195999999945e+00 5.582021819999999579e+00 0.000000000000000000e+00 1.551899419999999974e-01 1.057707229999999970e-01 8.574362450000000635e+00
6.736483665999999815e+00 0.000000000000000000e+00 0.000000000000000000e+00 -3.214104638999999874e+00 5.574122735999999634e+00 0.000000000000000000e+00 -1.848301029999999956e-01 -2.463072530000000038e-01 8.428531550000000649e+00
6.535901600999999950e+00 0.000000000000000000e+00 0.000000000000000000e+00 -3.197871806999999844e+00 5.601802342000000046e+00 0.000000000000000000e+00 -1.669967489999999999e-01 1.402981060000000058e-01 8.644844899000000638e+00
6.545784238000000421e+00 0.000000000000000000e+00 0.000000000000000000e+00 -3.136728272000000040e+00 5.601287174000000313e+00 0.000000000000000000e+00 -1.383684890000000112e-01 6.488244899999999482e-02 8.572519962999999521e+00
6.619623938000000152e+00 0.000000000000000000e+00 0.000000000000000000e+00 -3.153735873000000023e+00 5.818578945999999696e+00 0.000000000000000000e+00 1.541309899999999955e-02 -3.710949999999999666e-02 8.306527537999999211e+00
6.358889549999999780e+00 0.000000000000000000e+00 0.000000000000000000e+00 -3.211576639000000011e+00 5.790416066999999778e+00 0.000000000000000000e+00 -2.334217550000000085e-01 -1.812818569999999907e-01 8.502149380000000534e+00
6.719842836999999847e+00 0.000000000000000000e+00 0.000000000000000000e+00 -3.223023446000000014e+00 5.655102986000000165e+00 0.000000000000000000e+00 -7.713275399999999782e-02 2.183844339999999884e-01 8.456889051999999296e+00
6.456987997999999784e+00 0.000000000000000000e+00 0.000000000000000000e+00 -3.069416503999999879e+00 5.833083260999999631e+00 0.000000000000000000e+00 2.597260599999999878e-02 -1.888642719999999997e-01 8.504437293000000508e+00
6.618068621068595725e+00 1.547605793504847637e-21 0.000000000000000000e+00 -3.309087263972548154e+00 5.731384972818308832e+00 0.000000000000000000e+00 0.000000000000000000e+00 0.000000000000000000e+00 8.523404831000000570e+00
6.584795715000000271e+00 0.000000000000000000e+00 0.000000000000000000e+00 -3.367291187999999824e+00 5.756449990000000128e+00 0.000000000000000000e+00 -3.787049299999999813e-02 1.813539399999999913e-02 8.306500458000000364e+00
6.670429540999999851e+00 0.000000000000000000e+00 0.000000000000000000e+00 -3.299108359999999962e+00 5.744913230999999953e+00 0.000000000000000000e+00 1.681504920000000125e-01 -2.393660810000000083e-01 8.443579553999999376e+00
6.720365682999999812e+00 0.000000000000000000e+00 0.000000000000000000e+00 -3.523902528999999895e+00 5.709375844000000200e+00 0.000000000000000000e+00 -1.190467060000000021e-01 -1.917428019999999900e-01 8.749378712000000391e+00
6.596768072999999788e+00 0.000000000000000000e+00 0.000000000000000000e+00 -3.421655009999999830e+00 5.762270999000000060e+00 0.000000000000000000e+00 1.325429760000000068e-01 -1.593513330000000117e-01 8.721181891000000519e+00
6.728864160999999733e+00 0.000000000000000000e+00 0.000000000000000000e+00 -3.419080468000000206e+00 5.663070442999999621e+00 0.000000000000000000e+00 1.363338279999999902e-01 -1.497743079999999949e-01 8.519482346000000206e+00
6.663441519000000035e+00 0.000000000000000000e+00 0.000000000000000000e+00 -3.396606392999999890e+00 5.568811382999999893e+00 0.000000000000000000e+00 -1.610057179999999921e-01 1.007320329999999986e-01 8.671461263999999503e+00
6.453648002999999633e+00 0.000000000000000000e+00 0.000000000000000000e+00 -3.179021776999999993e+00 5.721880078999999952e+00 0.000000000000000000e+00 1.091898439999999942e-01 2.207352830000000043e-01 8.623715622000000636e+00
6.618395433999999966e+00 0.000000000000000000e+00 0.000000000000000000e+00 -3.336468302000000108e+00 5.838883833999999773e+00 0.000000000000000000e+00 -1.400261580000000117e-01 -2.500764160000000236e-01 8.774547010999999230e+00
6.511758922000000283e+00 0.000000000000000000e+00 0.000000000000000000e+00 -3.387391661000000109e+00 5.725750570999999844e+00 0.000000000000000000e+00 1.227205100000000049e-01 5.078980899999999826e-02 8.457498319000000819e+00
6.612730318999999746e+00 0.000000000000000000e+00 0.000000000000000000e+00 -3.161356810000000017e+00 5.602149069000000203e+00 0.000000000000000000e+00 -1.260061349999999913e-01 1.749104710000000118e-01 8.561348397999999804e+00
6.164202141999999718e+00 -8.942835986490636258e-25 0.000000000000000000e+00 -3.082101846908962717e+00 5.338355198999995999e+00 0.000000000000000000e+00 4.601822412461696865e-09 8.624063717457273393e-09 9.873957298000000549e+00
6.338430084999999714e+00 0.000000000000000000e+00 0.000000000000000000e+00 -3.289653822000000005e+00 5.473034639999999840e+00 0.000000000000000000e+00 -2.752161700000000169e-02 2.050247229999999921e-01 9.883796464999999642e+00
6.130981560000000385e+00 0.000000000000000000e+00 0.000000000000000000e+00 -2.926190157999999819e+00 5.384517360000000252e+00 0.000000000000000000e+00 -1.080438539999999947e-01 -9.314257800000000365e-02 9.734202703999999429e+00
6.042830354000000348e+00 0.000000000000000000e+00 0.000000000000000000e+00 -3.151994301999999859e+00 5.407423953000000338e+00 0.000000000000000000e+00 2.857594039999999946e-01 2.523562249999999896e-01 9.878936734999999913e+00
6.131240909999999822e+00 0.000000000000000000e+00 0.000000000000000000e+00 -3.005366448999999829e+00 5.388857210000000286e+00 0.000000000000000000e+00 4.425444299999999748e-02 -1.742792210000000119e-01 1.005835470399999920e+01
5.980682049000000333e+00 0.000000000000000000e+00 0.000000000000000000e+00 -2.998108069999999792e+00 5.432454937000000150e+00 0.000000000000000000e+00 5.708852700000000002e-02 2.847528970000000048e-01 9.918608189000000408e+00
6.119230885000000342e+00 0.000000000000000000e+00 0.000000000000000000e+00 -3.219746247999999866e+00 5.367370540999999662e+00 0.000000000000000000e+00 -2.520479809999999765e-01 1.957216190000000133e-01 9.949010270000000489e+00
6.112308336999999980e+00 0.000000000000000000e+00 0.000000000000000000e+00 -3.083727045999999916e+00 5.487199125000000066e+00 0.000000000000000000e+00 1.760319880000000003e-01 -1.813947240000000072e-01 1.007664937600000066e+01
6.207842300000000257e+00 0.000000000000000000e+00 0.000000000000000000e+00 -2.983774071000000028e+00 5.413653112000000434e+00 0.000000000000000000e+00 1.607836199999999882e-02 -1.883870280000000119e-01 1.012109514399999988e+01
6.275604282999999839e+00 0.000000000000000000e+00 0.000000000000000000e+00 -2.988630024999999968e+00 5.327564801000000294e+00 0.000000000000000000e+00 8.888670199999999799e-02 2.037512449999999975e-01 9.888169538999999730e+00
6.233921331000000343e+00 0.000000000000000000e+00 0.000000000000000000e+00 -2.967147730000000205e+00 5.260649511999999639e+00 0.000000000000000000e+00 5.881739600000000096e-02 2.068209840000000133e-01 9.607797289000000518e+00
6.226466809999999796e+00 1.166053759389696247e-24 0.000000000000000000e+00 -3.113234188908962530e+00 5.392277978999995725e+00 -4.135903062765138374e-25 4.601822412669377101e-09 8.624063716951392892e-09 9.973694240000000377e+00
6.128605851999999743e+00 0.000000000000000000e+00 0.000000000000000000e+00 -2.978398249000000053e+00 5.423970750999999701e+00 0.000000000000000000e+00 1.453789999999999943e-02 6.129568600000000200e-02 1.011304490200000039e+01
6.253447923999999603e+00 0.000000000000000000e+00 0.000000000000000000e+00 -2.994761932999999932e+00 5.268458350999999595e+00 0.000000000000000000e+00 -2.056087819999999899e-01 -2.292041900000000090e-02 1.011554191099999933e+01
6.273299683000000293e+00 0.000000000000000000e+00 0.000000000000000000e+00 -3.053272578000000070e+00 5.448199955999999844e+00 0.000000000000000000e+00 1.969934650000000065e-01 1.570624359999999997e-01 1.018697037199999933e+01
6.193527052000000310e+00 0.000000000000000000e+00 0.000000000000000000e+00 -3.083687960999999866e+00 5.336575426999999650e+00 0.000000000000000000e+00 -2.548894580000000132e-01 -2.947673510000000108e-01 1.001827645000000011e+01
6.373203743000000365e+00 0.000000000000000000e+00 0.000000000000000000e+00 -3.134172609999999803e+00 5.268182986000000234e+00 0.000000000000000000e+00 -6.538585000000000404e-03 2.137486150000000029e-01 9.826962234999999879e+00
6.274647833000000396e+00 0.000000000000000000e+00 0.000000000000000000e+00 -3.162865061000000200e+00 5.477680700999999708e+00 0.000000000000000000e+00 -1.588276620000000083e-01 1.151323479999999955e-01 1.025419967700000079e+01
6.100423485000000312e+00 0.000000000000000000e+00 0.000000000000000000e+00 -2.975940961000000051e+00 5.355600731000000003e+00 0.000000000000000000e+00 -1.535898370000000068e-01 -9.608773900000000534e-02 1.023863729400000011e+01
6.356934759999999685e+00 0.000000000000000000e+00 0.000000000000000000e+00 -3.109182877999999928e+00 5.311651792000000150e+00 0.000000000000000000e+00 -2.978371029999999919e-01 4.603708100000000053e-02 1.009988871999999915e+01
6.331800116000000145e+00 0.000000000000000000e+00 0.000000000000000000e+00 -3.030354433999999930e+00 5.398785670999999731e+00 0.000000000000000000e+00 -1.094242549999999981e-01 -2.508404810000000040e-01 9.715570443000000722e+00
6.203653452000000179e+00 0.000000000000000000e+00 0.000000000000000000e+00 -3.016939220999999893e+00 5.321381306000000144e+00 0.000000000000000000e+00 1.666071809999999931e-01 -1.954440070000000029e-01 1.016796330500000067e+01
6.288731477999999875e+00 -3.300775536045677282e-24 0.000000000000000000e+00 -3.144366530774988178e+00 5.446200758499995409e+00 0.000000000000000000e+00 4.601822412236886545e-09 8.624063717317689974e-09 1.007343118200000021e+01
6.414195485999999669e+00 0.000000000000000000e+00 0.000000000000000000e+00 -3.146697602999999788e+00 5.318808676999999818e+00 0.000000000000000000e+00 -1.684145469999999978e-01 -9.098030299999999848e-02 9.960062991999999227e+00
6.418594005000000102e+00 0.000000000000000000e+00 0.000000000000000000e+00 -3.194626351000000142e+00 5.378308621999999595e+00 0.000000000000000000e+00 1.906416079999999902e-01 1.684023709999999951e-01 1.017471959000000048e+01
6.425032919000000398e+00 0.000000000000000000e+00 0.000000000000000000e+00 -3.229053449999999881e+00 5.491229291999999873e+00 0.000000000000000000e+00 1.627738300000000082e-01 -7.241415700000000677e-02 1.034035527099999996e+01
6.342823747999999817e+00 0.000000000000000000e+00 0.000000000000000000e+00 -3.265079856999999919e+00 5.446235993000000164e+00 0.000000000000000000e+00 1.105502190000000051e-01 8.894682600000000661e-02 9.972745425999999469e+00
6.469042190999999775e+00 0.000000000000000000e+00 0.000000000000000000e+00 -3.272139416999999995e+00 5.405782719000000291e+00 0.000000000000000000e+00 2.575508449999999727e-01 -2.763310909999999732e-01 9.898704378999999776e+00
6.253176778000000269e+00 0.000000000000000000e+00 0.000000000000000000e+00 -2.978534837000000213e+00 5.503568044999999742e+00 0.000000000000000000e+00 1.305743769999999915e-01 9.142132099999999983e-02 1.025849172600000081e+01
6.119161004999999598e+00 0.000000000000000000e+00 0.000000000000000000e+00 -2.964282718000000205e+00 5.503783731000000401e+00 0.000000000000000000e+00 1.223127049999999938e-01 2.056845180000000106e-01 1.034961353099999926e+01
6.128920565999999681e+00 0.000000000000000000e+00 0.000000000000000000e+00 -3.118211028999999801e+00 5.571961944999999972e+00 0.000000000000000000e+00 -8.120420000000000155e-04 -2.387583110000000008e-01 1.031622486200000033e+01
6.201645431000000208e+00 0.000000000000000000e+00 0.000000000000000000e+00 -3.201719841000000066e+00 5.478150187999999865e+00 0.000000000000000000e+00 2.936805909999999908e-01 -6.055616500000000207e-02 1.025449941299999956e+01
6.395366877999999922e+00 0.000000000000000000e+00 0.000000000000000000e+00 -3.323166039000000183e+00 5.473907860999999819e+00 0.000000000000000000e+00 1.846130049999999967e-01 9.649927299999999653e-02 1.004380109000000054e+01
