1.621725737065848438e+00 9.363073836290251029e-01 2.088659999999999961e+00 1.621725737065848438e+00 9.363073836290251029e-01 6.265970000000000262e+00 -4.705189701808248752e-05 3.745249999824593612e+00 2.088659999999999961e+00 -4.705189701808248752e-05 3.745249999824593612e+00 6.265970000000000262e+00 4.865235737123289717e+00 9.363021511341312886e-01 2.088659999999999961e+00 4.865235737123289717e+00 9.363021511341312886e-01 6.265970000000000262e+00 3.243462948114893329e+00 3.745254767329699863e+00 2.088659999999999961e+00 3.243462948114893329e+00 3.745254767329699863e+00 6.265970000000000262e+00 -1.852588021499914096e-05 1.872609999935061831e+00 0.000000000000000000e+00 -1.852588021499914096e-05 1.872609999935061831e+00 4.177310000000000301e+00 -1.621801314888611012e+00 4.681562616085100714e+00 0.000000000000000000e+00 -1.621801314888611012e+00 4.681562616085100714e+00 4.177310000000000301e+00 3.243491474131696695e+00 1.872614767440167860e+00 0.000000000000000000e+00 3.243491474131696695e+00 1.872614767440167860e+00 4.177310000000000301e+00 1.621708685168830044e+00 4.681557383590206456e+00 0.000000000000000000e+00 1.621708685168830044e+00 4.681557383590206456e+00 4.177310000000000301e+00 1.621725737065848438e+00 9.363073836290251029e-01 0.000000000000000000e+00 1.621725737065848438e+00 9.363073836290251029e-01 4.177310000000000301e+00 -4.705189701808248752e-05 3.745249999824593612e+00 0.000000000000000000e+00 -4.705189701808248752e-05 3.745249999824593612e+00 4.177310000000000301e+00 4.865235737123289717e+00 9.363021511341312886e-01 0.000000000000000000e+00 4.865235737123289717e+00 9.363021511341312886e-01 4.177310000000000301e+00 3.243462948114893329e+00 3.745254767329699863e+00 0.000000000000000000e+00 3.243462948114893329e+00 3.745254767329699863e+00 4.177310000000000301e+00 -1.852588021499914096e-05 1.872609999935061831e+00 2.088659999999999961e+00 -1.852588021499914096e-05 1.872609999935061831e+00 6.265970000000000262e+00 -1.621801314888611012e+00 4.681562616085100714e+00 2.088659999999999961e+00 -1.621801314888611012e+00 4.681562616085100714e+00 6.265970000000000262e+00 3.243491474131696695e+00 1.872614767440167860e+00 2.088659999999999961e+00 3.243491474131696695e+00 1.872614767440167860e+00 6.265970000000000262e+00 1.621708685168830044e+00 4.681557383590206456e+00 2.088659999999999961e+00 1.621708685168830044e+00 4.681557383590206456e+00 6.265970000000000262e+00
1.686430000000000096e+00 9.099699999999999456e-01 2.087309999999999999e+00 1.819839999999999902e+00 8.162399999999999656e-01 6.239200000000000301e+00 -1.043000000000000003e-02 3.718399999999999928e+00 2.085679999999999978e+00 8.511000000000000509e-02 3.634570000000000078e+00 6.244069999999999787e+00 5.017479999999999940e+00 9.013999999999999790e-01 2.084760000000000169e+00 5.122950000000000337e+00 8.281699999999999617e-01 6.246260000000000367e+00 3.283679999999999932e+00 3.726539999999999964e+00 2.076789999999999914e+00 3.401539999999999786e+00 3.627670000000000172e+00 6.245860000000000412e+00 -4.157999999999999891e-02 1.888759999999999994e+00 1.611999999999999891e-02 7.767000000000000293e-02 1.799239999999999950e+00 4.161760000000000126e+00 -1.752520000000000078e+00 4.698050000000000281e+00 4.250000000000000305e-03 -1.625580000000000025e+00 4.612070000000000114e+00 4.169279999999999653e+00 3.263999999999999790e+00 1.885070000000000023e+00 8.250000000000000389e-03 3.388959999999999972e+00 1.796780000000000044e+00 4.157149999999999679e+00 1.788410000000000055e+00 4.544620000000000104e+00 8.308139999999999858e+00 1.690120000000000067e+00 4.631750000000000256e+00 4.163020000000000387e+00 1.637049999999999894e+00 9.406999999999999806e-01 8.400000000000000348e-04 1.748969999999999914e+00 8.608400000000000496e-01 4.154180000000000206e+00 1.441099999999999881e-01 3.606240000000000112e+00 8.317899999999999849e+00 3.869000000000000217e-02 3.686220000000000052e+00 4.169159999999999755e+00 4.947000000000000064e+00 9.280500000000000416e-01 1.494000000000000015e-02 5.065120000000000289e+00 8.625399999999999734e-01 4.163479999999999848e+00 3.467600000000000016e+00 3.600229999999999819e+00 8.320199999999999818e+00 3.345779999999999976e+00 3.680860000000000021e+00 4.168249999999999567e+00 2.498999999999999833e-02 1.835339999999999971e+00 2.073090000000000099e+00 1.386999999999999900e-01 1.768459999999999921e+00 6.235380000000000145e+00 -1.695940000000000003e+00 4.651790000000000092e+00 2.069109999999999783e+00 -1.576379999999999892e+00 4.579460000000000086e+00 6.240960000000000285e+00 3.331519999999999815e+00 1.841420000000000057e+00 2.084439999999999849e+00 3.450810000000000155e+00 1.760599999999999943e+00 6.244250000000000078e+00 1.623129999999999962e+00 4.655710000000000015e+00 2.082240000000000091e+00 1.732420000000000071e+00 4.564960000000000129e+00 6.228379999999999583e+00
1.701950000000000074e+00 8.806599999999999984e-01 2.081780000000000186e+00 1.804939999999999989e+00 7.836199999999999832e-01 6.247799999999999798e+00 1.238299999999999956e-01 3.666710000000000136e+00 2.082899999999999974e+00 2.176299999999999901e-01 3.563730000000000064e+00 6.241179999999999950e+00 4.981489999999999974e+00 8.826100000000000056e-01 2.084179999999999922e+00 5.075470000000000148e+00 7.840700000000000447e-01 6.249979999999999869e+00 3.382000000000000117e+00 3.663349999999999884e+00 2.078320000000000167e+00 3.496539999999999981e+00 3.569500000000000117e+00 6.246019999999999683e+00 3.667999999999999733e-02 1.857930000000000081e+00 1.700000000000000122e-04 1.374499999999999889e-01 1.759390000000000009e+00 4.165399999999999991e+00 -1.544089999999999963e+00 4.646099999999999675e+00 5.219999999999999814e-03 -1.442919999999999980e+00 4.543859999999999566e+00 4.164889999999999759e+00 3.310560000000000169e+00 1.857299999999999951e+00 6.380000000000000254e-03 3.400760000000000005e+00 1.755230000000000068e+00 4.166009999999999991e+00 1.921759999999999913e+00 4.448439999999999728e+00 8.325730000000000075e+00 1.824259999999999993e+00 4.537289999999999601e+00 4.158979999999999677e+00 1.652320000000000011e+00 9.291800000000000059e-01 2.720000000000000195e-03 1.755619999999999958e+00 8.332000000000000517e-01 4.168330000000000091e+00 7.419000000000000594e-02 3.712579999999999991e+00 3.800000000000000209e-04 1.722299999999999942e-01 3.614380000000000148e+00 4.166019999999999612e+00 5.129330000000000389e+00 7.277400000000000535e-01 8.328440000000000509e+00 5.028550000000000075e+00 8.360499999999999599e-01 4.171669999999999767e+00 3.340570000000000039e+00 3.722389999999999866e+00 1.217000000000000026e-02 3.454299999999999926e+00 3.608239999999999892e+00 4.157670000000000421e+00 9.783000000000000029e-02 1.806000000000000050e+00 2.073900000000000077e+00 1.955099999999999894e-01 1.720790000000000042e+00 6.260379999999999612e+00 -1.485859999999999959e+00 4.596799999999999997e+00 2.077030000000000154e+00 -1.387350000000000083e+00 4.504439999999999777e+00 6.238209999999999589e+00 3.356489999999999974e+00 1.798780000000000046e+00 2.084560000000000191e+00 3.466239999999999988e+00 1.708779999999999966e+00 6.237639999999999851e+00 1.776459999999999928e+00 4.607339999999999769e+00 2.084439999999999849e+00 1.878579999999999917e+00 4.488419999999999632e+00 6.255790000000000184e+00
1.660930000000000017e+00 9.158300000000000329e-01 2.017310000000000159e+00 1.656490000000000018e+00 8.906600000000000072e-01 6.082620000000000360e+00 1.157000000000000042e-02 3.661340000000000039e+00 2.026889999999999858e+00 1.524000000000000007e-02 3.641729999999999912e+00 6.093239999999999768e+00 4.963589999999999947e+00 9.103099999999999525e-01 2.038310000000000066e+00 4.971379999999999910e+00 8.864800000000000457e-01 6.089730000000000310e+00 3.321130000000000138e+00 3.668880000000000141e+00 2.024140000000000050e+00 3.327560000000000073e+00 3.639679999999999804e+00 6.090779999999999639e+00 1.524999999999999967e-02 1.780380000000000074e+00 8.107200000000000628e+00 1.025000000000000043e-02 1.809709999999999930e+00 4.054219999999999935e+00 -1.644719999999999960e+00 4.593180000000000263e+00 1.100000000000000039e-04 -1.642069999999999919e+00 4.563279999999999781e+00 4.070359999999999978e+00 3.297120000000000051e+00 1.848330000000000028e+00 1.114000000000000060e-02 3.321180000000000021e+00 1.810300000000000020e+00 4.053930000000000256e+00 1.660979999999999901e+00 4.595740000000000158e+00 2.089999999999999844e-03 1.659049999999999914e+00 4.564160000000000217e+00 4.047620000000000218e+00 1.670309999999999961e+00 9.087899999999999867e-01 2.949999999999999931e-03 1.655180000000000096e+00 8.918199999999999461e-01 4.055579999999999963e+00 9.159999999999999740e-03 3.675279999999999880e+00 2.109999999999999896e-03 4.219999999999999793e-03 3.638380000000000170e+00 4.056079999999999686e+00 4.958359999999999879e+00 9.200599999999999890e-01 1.600000000000000131e-04 4.965220000000000411e+00 8.900299999999999878e-01 4.053720000000000212e+00 3.304479999999999862e+00 3.679489999999999927e+00 1.175999999999999962e-02 3.315949999999999953e+00 3.650580000000000158e+00 4.052979999999999805e+00 -1.649999999999999991e-03 1.825579999999999981e+00 2.032230000000000203e+00 1.422999999999999959e-02 1.795309999999999961e+00 6.081450000000000244e+00 -1.636139999999999928e+00 4.583400000000000141e+00 2.026839999999999975e+00 -1.638349999999999973e+00 4.554210000000000313e+00 6.076179999999999914e+00 3.317110000000000003e+00 1.822899999999999965e+00 2.020960000000000090e+00 3.315170000000000172e+00 1.796440000000000037e+00 6.078879999999999839e+00 1.655319999999999903e+00 4.599219999999999864e+00 2.027519999999999989e+00 1.668719999999999981e+00 4.550889999999999880e+00 6.077740000000000364e+00
1.650819999999999954e+00 9.189199999999999591e-01 2.144029999999999880e+00 1.773249999999999993e+00 8.393500000000000405e-01 6.433010000000000339e+00 7.667000000000000204e-02 3.790669999999999984e+00 2.145509999999999806e+00 1.995500000000000052e-01 3.716439999999999966e+00 6.430760000000000254e+00 4.822669999999999568e+00 9.190899999999999626e-01 2.142939999999999845e+00 4.952200000000000379e+00 8.447299999999999809e-01 6.430559999999999832e+00 3.242070000000000007e+00 3.789540000000000131e+00 2.137599999999999945e+00 3.362210000000000143e+00 3.731250000000000178e+00 6.430589999999999584e+00 2.516200000000000103e-01 1.764590000000000103e+00 8.562379999999999214e+00 1.129799999999999971e-01 1.830389999999999961e+00 4.284139999999999837e+00 -1.572370000000000045e+00 4.782650000000000290e+00 2.040000000000000147e-03 -1.443719999999999892e+00 4.713309999999999889e+00 4.284849999999999604e+00 3.421839999999999993e+00 1.760189999999999921e+00 8.575079999999999814e+00 3.312469999999999803e+00 1.832559999999999967e+00 4.275780000000000136e+00 1.848910000000000053e+00 4.632729999999999571e+00 8.574609999999999843e+00 1.723680000000000101e+00 4.716409999999999769e+00 4.286220000000000141e+00 1.600899999999999990e+00 9.686299999999999910e-01 1.204000000000000035e-02 1.709770000000000012e+00 8.848099999999999854e-01 4.287569999999999659e+00 2.364000000000000129e-02 3.833940000000000126e+00 7.749999999999999944e-03 1.378900000000000126e-01 3.756180000000000074e+00 4.284250000000000114e+00 4.761720000000000397e+00 9.588499999999999801e-01 6.300000000000000261e-04 4.895730000000000359e+00 8.909599999999999742e-01 4.278150000000000119e+00 3.186290000000000067e+00 3.833750000000000213e+00 2.739999999999999814e-03 3.312930000000000152e+00 3.757550000000000168e+00 4.286760000000000126e+00 6.882000000000000617e-02 1.879780000000000006e+00 2.144439999999999902e+00 1.908100000000000074e-01 1.799619999999999997e+00 6.433629999999999960e+00 -1.507880000000000109e+00 4.753269999999999662e+00 2.144120000000000026e+00 -1.388439999999999896e+00 4.680830000000000268e+00 6.439289999999999736e+00 3.241839999999999833e+00 1.875010000000000066e+00 2.140410000000000146e+00 3.352059999999999818e+00 1.791979999999999906e+00 6.426779999999999937e+00 1.664269999999999916e+00 4.741349999999999731e+00 2.130739999999999856e+00 1.795209999999999972e+00 4.685629999999999740e+00 6.426230000000000331e+00
1.746280000000000054e+00 9.683699999999999530e-01 2.134650000000000158e+00 1.860980000000000079e+00 1.083439999999999959e+00 6.408100000000000129e+00 1.614200000000000079e-01 3.694409999999999972e+00 2.134689999999999976e+00 2.755500000000000171e-01 3.808320000000000149e+00 6.409559999999999924e+00 5.071609999999999729e+00 9.704500000000000348e-01 2.135540000000000216e+00 5.186539999999999928e+00 1.085709999999999953e+00 6.406559999999999810e+00 3.490670000000000162e+00 3.711339999999999861e+00 2.144070000000000142e+00 3.598040000000000127e+00 3.812720000000000109e+00 6.402779999999999916e+00 2.761100000000000221e-01 2.053430000000000089e+00 8.538140000000000285e+00 1.534800000000000053e-01 1.942609999999999948e+00 4.276939999999999742e+00 -1.526259999999999950e+00 4.544559999999999711e+00 1.342999999999999923e-02 -1.423769999999999980e+00 4.647269999999999790e+00 4.273889999999999745e+00 3.363170000000000215e+00 1.821150000000000047e+00 1.193999999999999923e-02 3.492119999999999891e+00 1.935840000000000005e+00 4.269199999999999662e+00 1.796419999999999906e+00 4.552399999999999558e+00 4.850000000000000144e-03 1.901480000000000059e+00 4.667349999999999888e+00 4.266799999999999926e+00 1.920279999999999987e+00 1.140600000000000058e+00 8.536479999999999180e+00 1.793619999999999992e+00 1.021800000000000042e+00 4.258309999999999818e+00 3.256700000000000150e-01 3.876020000000000021e+00 8.535949999999999704e+00 2.176899999999999946e-01 3.751020000000000021e+00 4.249909999999999854e+00 5.018880000000000230e+00 9.104999999999999760e-01 6.479999999999999649e-03 5.130349999999999966e+00 1.021320000000000006e+00 4.263230000000000075e+00 3.419740000000000002e+00 3.629830000000000112e+00 3.439999999999999915e-03 3.547280000000000211e+00 3.749039999999999928e+00 4.266759999999999664e+00 1.025699999999999945e-01 1.895229999999999970e+00 2.131889999999999841e+00 2.205000000000000016e-01 1.995360000000000023e+00 6.400890000000000413e+00 -1.481800000000000006e+00 4.617639999999999745e+00 2.131330000000000169e+00 -1.363750000000000018e+00 4.735960000000000392e+00 6.413909999999999556e+00 3.439439999999999831e+00 1.870859999999999967e+00 2.128690000000000193e+00 3.550440000000000040e+00 1.994169999999999998e+00 6.416760000000000019e+00 1.852100000000000080e+00 4.595360000000000333e+00 2.123000000000000220e+00 1.962550000000000017e+00 4.724579999999999558e+00 6.402619999999999756e+00
1.622200000000000086e+00 9.617099999999999538e-01 2.098409999999999886e+00 1.733100000000000085e+00 1.026359999999999939e+00 6.301359999999999850e+00 -9.600000000000000243e-04 3.742189999999999905e+00 2.094240000000000101e+00 1.154400000000000009e-01 3.825959999999999805e+00 6.307699999999999640e+00 4.779040000000000177e+00 9.584000000000000297e-01 2.099639999999999951e+00 4.888119999999999798e+00 1.019740000000000091e+00 6.291579999999999728e+00 3.157220000000000137e+00 3.748270000000000213e+00 2.095730000000000093e+00 3.257779999999999898e+00 3.806690000000000129e+00 6.288009999999999877e+00 -1.931000000000000077e-02 1.863550000000000040e+00 3.959999999999999978e-03 9.662999999999999368e-02 1.918739999999999890e+00 4.205119999999999969e+00 -1.427079999999999904e+00 4.778360000000000163e+00 8.394880000000000564e+00 -1.539250000000000007e+00 4.709939999999999571e+00 4.199340000000000295e+00 3.350960000000000161e+00 1.993549999999999933e+00 8.393879999999999342e+00 3.228029999999999955e+00 1.922509999999999941e+00 4.184459999999999624e+00 1.721889999999999921e+00 4.763329999999999842e+00 8.392139999999999489e+00 1.614800000000000013e+00 4.705849999999999866e+00 4.195090000000000430e+00 1.787889999999999979e+00 1.062240000000000073e+00 8.390570000000000306e+00 1.667790000000000106e+00 9.878500000000000059e-01 4.197569999999999801e+00 1.639899999999999969e-01 3.849810000000000176e+00 8.390679999999999694e+00 5.757999999999999924e-02 3.791609999999999925e+00 4.202139999999999986e+00 4.952749999999999986e+00 1.073620000000000019e+00 8.386680000000000135e+00 4.839299999999999713e+00 9.913199999999999790e-01 4.200660000000000061e+00 3.094759999999999955e+00 3.707939999999999792e+00 7.900000000000000121e-04 3.211129999999999818e+00 3.779729999999999812e+00 4.198450000000000237e+00 3.713000000000000328e-02 1.902169999999999916e+00 2.103250000000000064e+00 1.312000000000000111e-01 1.951379999999999892e+00 6.305679999999999730e+00 -1.591849999999999987e+00 4.678499999999999659e+00 2.103439999999999976e+00 -1.476650000000000018e+00 4.744550000000000267e+00 6.297719999999999985e+00 3.196089999999999876e+00 1.888479999999999936e+00 2.097230000000000150e+00 3.291939999999999866e+00 1.953680000000000083e+00 6.292559999999999931e+00 1.562980000000000036e+00 4.674540000000000362e+00 2.103029999999999955e+00 1.676180000000000003e+00 4.738839999999999719e+00 6.288610000000000255e+00
1.587050000000000072e+00 9.101000000000000201e-01 2.110409999999999897e+00 1.470129999999999937e+00 8.670200000000000129e-01 6.307349999999999568e+00 2.097999999999999865e-02 3.683320000000000149e+00 2.101360000000000117e+00 -9.994000000000000106e-02 3.645010000000000083e+00 6.310080000000000133e+00 4.832690000000000374e+00 9.143200000000000216e-01 2.107839999999999936e+00 4.721020000000000216e+00 8.731200000000000072e-01 6.305270000000000152e+00 3.280879999999999797e+00 3.694890000000000008e+00 2.110009999999999941e+00 3.147740000000000204e+00 3.635879999999999779e+00 6.296020000000000394e+00 -1.963100000000000123e-01 1.774270000000000014e+00 8.408770000000000522e+00 -8.061000000000000110e-02 1.813719999999999999e+00 4.201509999999999856e+00 -1.751730000000000009e+00 4.561289999999999623e+00 8.402200000000000557e+00 -1.642130000000000090e+00 4.588949999999999640e+00 4.203500000000000014e+00 3.057259999999999867e+00 1.767640000000000100e+00 8.406370000000000786e+00 3.183920000000000083e+00 1.804429999999999978e+00 4.213320000000000398e+00 1.725230000000000041e+00 4.635200000000000209e+00 6.899999999999999667e-04 1.610330000000000039e+00 4.589760000000000062e+00 4.206570000000000142e+00 1.401960000000000095e+00 8.467000000000000082e-01 8.400660000000000238e+00 1.538089999999999957e+00 8.769799999999999818e-01 4.204589999999999606e+00 8.060000000000000497e-02 3.704209999999999781e+00 1.399999999999999877e-04 -3.228999999999999926e-02 3.670110000000000205e+00 4.197910000000000252e+00 4.654840000000000089e+00 8.343899999999999650e-01 8.405960000000000321e+00 4.793400000000000105e+00 8.754300000000000415e-01 4.197940000000000005e+00 3.342270000000000074e+00 3.715650000000000119e+00 1.007000000000000083e-02 3.211739999999999817e+00 3.667870000000000186e+00 4.207959999999999923e+00 -2.239000000000000018e-02 1.835190000000000099e+00 2.100769999999999804e+00 -1.404600000000000015e-01 1.805849999999999955e+00 6.302340000000000053e+00 -1.587210000000000010e+00 4.606090000000000018e+00 2.108709999999999862e+00 -1.692069999999999963e+00 4.561320000000000263e+00 6.318430000000000213e+00 3.228110000000000035e+00 1.839979999999999949e+00 2.119289999999999896e+00 3.117809999999999970e+00 1.793760000000000021e+00 6.311530000000000307e+00 1.669459999999999944e+00 4.621500000000000163e+00 2.090759999999999952e+00 1.550149999999999917e+00 4.573830000000000062e+00 6.311499999999999666e+00
1.649739999999999984e+00 9.197899999999999965e-01 2.131909999999999972e+00 1.634220000000000006e+00 8.560499999999999776e-01 6.397809999999999775e+00 2.935000000000000109e-02 3.763110000000000177e+00 2.135629999999999917e+00 7.040000000000000251e-03 3.700950000000000184e+00 6.407989999999999853e+00 4.944390000000000285e+00 9.295900000000000274e-01 2.124690000000000190e+00 4.938019999999999854e+00 8.456299999999999928e-01 6.398419999999999774e+00 3.315139999999999976e+00 3.777859999999999996e+00 2.143240000000000034e+00 3.297419999999999796e+00 3.713470000000000049e+00 6.399549999999999628e+00 1.091999999999999915e-02 1.901739999999999986e+00 1.639999999999999965e-03 8.000000000000000383e-04 1.839790000000000036e+00 4.283879999999999910e+00 -1.642419999999999991e+00 4.626879999999999882e+00 8.539279999999999760e+00 -1.631440000000000001e+00 4.691589999999999705e+00 4.269969999999999821e+00 3.290649999999999853e+00 1.771349999999999980e+00 8.531660000000000466e+00 3.297709999999999919e+00 1.836610000000000076e+00 4.273859999999999992e+00 1.650810000000000111e+00 4.627650000000000041e+00 8.540169999999999817e+00 1.661650000000000071e+00 4.691589999999999705e+00 4.270059999999999967e+00 1.654130000000000100e+00 9.518199999999999994e-01 1.809999999999999977e-03 1.638770000000000060e+00 8.727200000000000513e-01 4.267759999999999998e+00 -3.910000000000000281e-03 3.670339999999999936e+00 8.533039999999999736e+00 1.230999999999999976e-02 3.749470000000000081e+00 4.279910000000000103e+00 4.935439999999999827e+00 8.165599999999999525e-01 8.533609999999999474e+00 4.924000000000000377e+00 8.819599999999999662e-01 4.257019999999999804e+00 3.297759999999999803e+00 3.673500000000000210e+00 8.533060000000000755e+00 3.299760000000000026e+00 3.734949999999999992e+00 4.276530000000000165e+00 5.060000000000000261e-03 1.881040000000000045e+00 2.122539999999999871e+00 -5.969999999999999613e-03 1.810789999999999900e+00 6.404650000000000176e+00 -1.625369999999999981e+00 4.722660000000000302e+00 2.134990000000000165e+00 -1.645510000000000028e+00 4.659760000000000346e+00 6.392890000000000406e+00 3.302029999999999799e+00 1.857480000000000020e+00 2.143580000000000041e+00 3.287100000000000133e+00 1.806359999999999966e+00 6.405190000000000161e+00 1.661920000000000064e+00 4.726740000000000386e+00 2.137999999999999901e+00 1.645680000000000032e+00 4.648299999999999876e+00 6.403640000000000221e+00
1.688520000000000021e+00 9.466599999999999460e-01 2.104589999999999961e+00 1.730790000000000051e+00 9.655299999999999994e-01 6.324600000000000222e+00 1.232700000000000046e-01 3.783370000000000122e+00 2.101890000000000036e+00 1.469499999999999973e-01 3.792889999999999873e+00 6.334480000000000111e+00 4.989150000000000418e+00 9.459899999999999975e-01 2.107990000000000030e+00 5.024180000000000312e+00 9.619299999999999518e-01 6.327619999999999578e+00 3.419029999999999792e+00 3.779259999999999842e+00 2.111299999999999955e+00 3.444570000000000132e+00 3.806000000000000050e+00 6.338759999999999728e+00 4.610000000000000209e-02 1.882190000000000030e+00 4.069999999999999833e-03 7.746999999999999720e-02 1.905469999999999997e+00 4.223679999999999879e+00 -1.521220000000000017e+00 4.720159999999999911e+00 1.219999999999999947e-03 -1.483479999999999910e+00 4.742020000000000124e+00 4.222599999999999909e+00 3.346220000000000194e+00 1.894030000000000102e+00 1.608000000000000054e-02 3.391929999999999890e+00 1.894810000000000105e+00 4.231980000000000075e+00 1.844149999999999956e+00 4.735529999999999795e+00 8.437260000000000204e+00 1.803979999999999917e+00 4.744769999999999932e+00 4.214249999999999829e+00 1.724669999999999925e+00 9.761800000000000477e-01 8.432570000000000121e+00 1.697920000000000096e+00 9.429400000000000004e-01 4.213079999999999714e+00 1.539399999999999935e-01 3.801260000000000083e+00 8.431110000000000326e+00 1.340300000000000102e-01 3.787129999999999885e+00 4.219619999999999926e+00 4.987739999999999618e+00 9.408600000000000296e-01 5.899999999999999863e-03 5.001159999999999606e+00 9.501300000000000301e-01 4.230850000000000222e+00 3.470159999999999911e+00 3.789950000000000152e+00 8.440910000000000579e+00 3.433139999999999858e+00 3.789179999999999993e+00 4.225520000000000387e+00 7.037000000000000199e-02 1.897999999999999909e+00 2.121869999999999923e+00 9.614999999999999936e-02 1.910749999999999948e+00 6.330269999999999619e+00 -1.513770000000000060e+00 4.733649999999999913e+00 2.118059999999999832e+00 -1.468409999999999993e+00 4.722769999999999690e+00 6.332200000000000273e+00 3.373069999999999791e+00 1.900840000000000085e+00 2.115060000000000162e+00 3.396300000000000097e+00 1.893799999999999928e+00 6.328159999999999563e+00 1.796980000000000022e+00 4.716289999999999871e+00 2.119489999999999874e+00 1.822079999999999922e+00 4.735920000000000130e+00 6.333980000000000388e+00
1.681580000000000075e+00 9.548200000000000021e-01 2.133340000000000014e+00 1.721160000000000023e+00 9.756899999999999462e-01 6.420720000000000205e+00 7.709999999999999840e-03 3.803150000000000031e+00 2.143409999999999815e+00 4.810999999999999999e-02 3.826970000000000205e+00 6.403279999999999639e+00 4.990109999999999602e+00 9.473200000000000509e-01 2.123120000000000118e+00 5.055419999999999803e+00 9.779499999999999860e-01 6.422060000000000102e+00 3.330210000000000115e+00 3.804759999999999920e+00 2.140870000000000051e+00 3.371680000000000010e+00 3.829670000000000130e+00 6.413299999999999557e+00 7.964000000000000246e-02 1.923920000000000075e+00 8.538740000000000663e+00 2.900000000000000147e-02 1.909680000000000044e+00 4.282140000000000057e+00 -1.683249999999999913e+00 4.749690000000000190e+00 7.749999999999999944e-03 -1.640779999999999905e+00 4.768869999999999720e+00 4.269800000000000040e+00 3.399869999999999948e+00 1.934180000000000010e+00 8.537929999999999353e+00 3.355329999999999924e+00 1.915389999999999926e+00 4.273240000000000371e+00 1.623140000000000027e+00 4.756770000000000387e+00 8.710000000000000728e-03 1.684809999999999919e+00 4.763399999999999856e+00 4.269210000000000171e+00 1.766210000000000058e+00 9.749400000000000288e-01 8.535180000000000433e+00 1.685990000000000100e+00 9.752499999999999503e-01 4.274650000000000283e+00 8.241999999999999327e-02 3.850579999999999892e+00 8.537179999999999325e+00 3.926000000000000323e-02 3.821200000000000152e+00 4.273450000000000415e+00 5.081809999999999938e+00 1.002119999999999900e+00 8.539009999999999323e+00 5.035440000000000360e+00 9.781499999999999639e-01 4.273240000000000371e+00 3.297060000000000102e+00 3.797010000000000218e+00 2.840000000000000076e-03 3.353759999999999852e+00 3.808530000000000193e+00 4.268410000000000259e+00 1.041000000000000085e-02 1.899019999999999930e+00 2.119240000000000013e+00 6.628000000000000558e-02 1.932749999999999968e+00 6.390900000000000247e+00 -1.679610000000000047e+00 4.770400000000000418e+00 2.131310000000000038e+00 -1.613949999999999996e+00 4.781880000000000130e+00 6.391210000000000058e+00 3.339690000000000047e+00 1.909880000000000022e+00 2.129269999999999996e+00 3.381530000000000147e+00 1.930239999999999956e+00 6.406349999999999767e+00 1.649720000000000075e+00 4.771060000000000301e+00 2.125350000000000072e+00 1.710250000000000048e+00 4.790199999999999569e+00 6.407160000000000188e+00
1.638105693898646242e+00 9.457674583727412321e-01 2.109750000000000014e+00 1.638105693898646242e+00 9.457674583727412321e-01 6.329259999999999664e+00 -4.722451961953678430e-05 3.783079999824197071e+00 2.109750000000000014e+00 -4.722451961953678430e-05 3.783079999824197071e+00 6.329259999999999664e+00 4.914385693955748202e+00 9.457623754110118242e-01 2.109750000000000014e+00 4.914385693955748202e+00 9.457623754110118242e-01 6.329259999999999664e+00 3.276222775491952621e+00 3.783084916816937149e+00 2.109750000000000014e+00 3.276222775491952621e+00 3.783084916816937149e+00 6.329259999999999664e+00 -1.861221427940685120e-05 1.891529999934863815e+00 0.000000000000000000e+00 -1.861221427940685120e-05 1.891529999934863815e+00 4.219509999999999650e+00 -1.638181530632545346e+00 4.728842541340789296e+00 0.000000000000000000e+00 -1.638181530632545346e+00 4.728842541340789296e+00 4.219509999999999650e+00 3.276251387842822993e+00 1.891524916927604050e+00 0.000000000000000000e+00 3.276251387842822993e+00 1.891524916927604050e+00 4.219509999999999650e+00 1.638088469379026524e+00 4.728847458333529374e+00 0.000000000000000000e+00 1.638088469379026524e+00 4.728847458333529374e+00 4.219509999999999650e+00 1.638105693898646242e+00 9.457674583727412321e-01 0.000000000000000000e+00 1.638105693898646242e+00 9.457674583727412321e-01 4.219509999999999650e+00 -4.722451961953678430e-05 3.783079999824197071e+00 0.000000000000000000e+00 -4.722451961953678430e-05 3.783079999824197071e+00 4.219509999999999650e+00 4.914385693955748202e+00 9.457623754110118242e-01 0.000000000000000000e+00 4.914385693955748202e+00 9.457623754110118242e-01 4.219509999999999650e+00 3.276222775491952621e+00 3.783084916816937149e+00 0.000000000000000000e+00 3.276222775491952621e+00 3.783084916816937149e+00 4.219509999999999650e+00 -1.861221427940685120e-05 1.891529999934863815e+00 2.109750000000000014e+00 -1.861221427940685120e-05 1.891529999934863815e+00 6.329259999999999664e+00 -1.638181530632545346e+00 4.728842541340789296e+00 2.109750000000000014e+00 -1.638181530632545346e+00 4.728842541340789296e+00 6.329259999999999664e+00 3.276251387842822993e+00 1.891524916927604050e+00 2.109750000000000014e+00 3.276251387842822993e+00 1.891524916927604050e+00 6.329259999999999664e+00 1.638088469379026524e+00 4.728847458333529374e+00 2.109750000000000014e+00 1.638088469379026524e+00 4.728847458333529374e+00 6.329259999999999664e+00