-2.340860517399999878e+02
-2.341323782499999879e+02
-2.336662198500000045e+02
-2.331518656599999986e+02
-2.335543264799999861e+02
-2.330550496099999975e+02
-2.325063002400000016e+02
-2.336048835699999984e+02
-2.344720341800000085e+02
-2.343614779899999974e+02
-2.344403407800000139e+02
-2.345169448000000045e+02
-2.335809012800000062e+02
-2.333038275499999941e+02
-2.339859915099999910e+02
-2.338107996200000116e+02
-2.340660898300000099e+02
-2.340519935599999997e+02
-2.344076796500000057e+02
-2.336925160000000119e+02
-2.341980870600000060e+02
-2.339923653799999954e+02
-2.345610525799999948e+02
-2.345351649799999905e+02
-2.343082109499999888e+02
-2.336729507100000092e+02
-2.340122493000000077e+02
-2.342410569600000088e+02
-2.339858437199999912e+02
-2.340755430400000137e+02
-2.335523856700000067e+02
-2.342988562200000047e+02
-2.340946132299999931e+02
-2.377729633499999977e+02
-2.378649502799999880e+02
-2.372135219300000131e+02
-2.370375204400000086e+02
-2.378908067099999926e+02
-2.369130926699999975e+02
-2.374690674400000034e+02
-2.378456848499999978e+02
-2.380313988400000085e+02
-2.377222337499999867e+02
-2.363625472299999899e+02
-2.381960626499999876e+02
-2.379457130799999902e+02
-2.376489848100000017e+02
-2.379645874699999979e+02
-2.377809212999999886e+02
-2.374527014900000097e+02
-2.378695287799999960e+02
-2.375825424399999974e+02
-2.377883234999999900e+02
-2.374602703500000018e+02
-2.377917352999999991e+02
-2.382267322399999898e+02
-2.377895506000000125e+02
-2.377548425399999985e+02
-2.372338354899999899e+02
-2.380537524199999950e+02
-2.375630171900000107e+02
-2.376880519100000129e+02
-2.374534539599999903e+02
-2.373919353000000001e+02
-2.377743569200000024e+02
-2.377995045300000072e+02
