1.520004279747465248e-04 -9.399930795220727889e-05 9.999999999999999547e-07 1.480004234218483842e-04 -9.299932616397601755e-05 -9.999999999999999547e-07 1.510004188688777180e-04 -9.199931250516760173e-05 1.999999999999999909e-06 1.500004416335860250e-04 -9.699931705805537186e-05 -1.999999999999999909e-06 1.500004279747672387e-04 -9.399931705808646976e-05 3.000000000000000076e-06 1.530004143159173816e-04 -9.099930339929878135e-05 -3.000000000000000076e-06 1.510004279747569089e-04 -9.399931250514687432e-05 0.000000000000000000e+00 1.520004279747465248e-04 -9.399930795220727889e-05 0.000000000000000000e+00 -1.520003824453505705e-04 8.399930795231091594e-05 -1.999999999999999909e-06 -1.540003824453298567e-04 8.399929884643172508e-05 1.999999999999999909e-06 -1.530003778924006182e-04 8.299930339938169099e-05 9.999999999999999547e-07 -1.510003778924213591e-04 8.299931250526088186e-05 -9.999999999999999547e-07 -1.550003824453194726e-04 8.399929429349212964e-05 1.999999999999999909e-06 -1.530003687865214273e-04 8.099930339940243195e-05 -1.999999999999999909e-06 -1.540003687865110704e-04 8.099929884646283652e-05 3.000000000000000076e-06 -1.560003824453091157e-04 8.399928974055253421e-05 -3.000000000000000076e-06 1.460003915512919572e-04 -8.599933526992777468e-05 9.999999999999999547e-07 1.450003869983627187e-04 -8.499933982287772704e-05 -9.999999999999999547e-07 1.450003869983627187e-04 -8.499933982287772704e-05 9.999999999999999547e-07 1.450003915513023141e-04 -8.599933982286737011e-05 -9.999999999999999547e-07 1.450003824454231232e-04 -8.399933982288808397e-05 9.999999999999999547e-07 1.450003824454231232e-04 -8.399933982288808397e-05 -9.999999999999999547e-07 1.460003915512919572e-04 -8.599933526992777468e-05 9.999999999999999547e-07 1.460003915512919572e-04 -8.599933526992777468e-05 -9.999999999999999547e-07 -1.430004416336586048e-04 9.699934892863253989e-05 9.999999999999999547e-07 -1.430004416336586048e-04 9.699934892863253989e-05 -9.999999999999999547e-07 -1.430004325277794139e-04 9.499934892865328085e-05 9.999999999999999547e-07 -1.420004370807293663e-04 9.599935348158250580e-05 -9.999999999999999547e-07 -1.430004370807190094e-04 9.599934892864291037e-05 9.999999999999999547e-07 -1.440004325277690299e-04 9.499934437571368542e-05 -9.999999999999999547e-07 -1.440004325277690299e-04 9.499934437571368542e-05 9.999999999999999547e-07 -1.450004325277586730e-04 9.499933982277408999e-05 -9.999999999999999547e-07
7.200700000000000156e-02 -2.245499999999999996e-01 -6.557899999999999840e-02 -4.430020000000000069e-01 2.470650000000000068e-01 1.163529999999999981e-01 -3.725299999999999723e-01 3.437000000000000055e-01 2.028900000000000148e-02 -6.664999999999999918e-03 3.357760000000000189e-01 -3.919000000000000261e-02 -5.378979999999999873e-01 4.904499999999999832e-02 -5.809799999999999687e-02 -1.600920000000000121e-01 -9.695700000000000152e-02 1.304499999999999930e-02 -1.008900000000000075e-02 4.736599999999999838e-02 9.131499999999999340e-02 -7.952700000000000047e-02 4.468389999999999862e-01 -8.010499999999999565e-02 3.083710000000000062e-01 -3.227949999999999986e-01 -2.476069999999999938e-01 2.711480000000000001e-01 -3.012300000000000047e-02 1.289410000000000001e-01 2.362569999999999948e-01 -1.152700000000000079e-02 2.756000000000000116e-02 -3.383699999999999902e-02 -8.498999999999999611e-02 -1.116130000000000039e-01 3.777719999999999967e-01 -3.287080000000000002e-01 1.796199999999999880e-02 1.898450000000000137e-01 -4.103799999999999809e-02 -5.640200000000000075e-02 1.825650000000000051e-01 -4.174260000000000193e-01 5.227300000000000002e-02 -3.650199999999999972e-02 -4.620049999999999990e-01 8.318100000000000493e-02 -3.655900000000000261e-01 2.905559999999999810e-01 -7.861999999999999197e-03 -2.045659999999999978e-01 1.235490000000000060e-01 9.966200000000000059e-02 -3.243200000000000249e-02 9.584700000000000164e-02 1.005360000000000004e-01 -1.182900000000000063e-01 1.056300000000000017e-01 -2.185199999999999920e-01 -2.599819999999999909e-01 5.947569999999999801e-01 -1.955069999999999864e-01 -2.665939999999999976e-01 2.923009999999999775e-01 -5.377699999999999841e-02 -4.628109999999999724e-01 1.833160000000000067e-01 -3.379000000000000059e-03 -6.233999999999999958e-02 1.625320000000000098e-01 -5.688399999999999707e-02 1.981650000000000078e-01 3.269999999999999795e-04 1.030959999999999932e-01 2.303280000000000050e-01 -5.205349999999999699e-01 8.761099999999999444e-02 3.343670000000000253e-01 -1.530499999999999916e-02 1.502999999999999892e-01 1.285570000000000046e-01 -2.355750000000000066e-01 -2.421099999999999988e-02 2.819209999999999772e-01 -2.102559999999999985e-01 -5.846900000000000014e-02 2.594850000000000212e-01 -4.079070000000000196e-01 -4.184100000000000319e-02 1.736219999999999986e-01 -9.350799999999999390e-02 -2.880000000000000181e-03 2.083379999999999954e-01 1.845990000000000131e-01 2.297980000000000023e-01
4.052769999999999984e-01 1.406080000000000108e-01 -2.591399999999999954e-02 3.365270000000000206e-01 3.639879999999999782e-01 5.612899999999999834e-02 3.165160000000000196e-01 2.205900000000000083e-01 -8.271399999999999586e-02 4.238879999999999870e-01 4.017160000000000175e-01 1.239809999999999940e-01 2.783180000000000098e-01 3.523370000000000113e-01 -6.009999999999999717e-04 4.694789999999999797e-01 1.575910000000000089e-01 -3.871999999999999748e-02 6.088409999999999656e-01 2.743539999999999868e-01 4.581600000000000256e-02 3.623819999999999819e-01 1.919309999999999905e-01 -9.070999999999999203e-03 -2.635689999999999977e-01 -2.420839999999999936e-01 -4.062400000000000039e-02 -3.048259999999999859e-01 -2.881179999999999852e-01 2.025899999999999923e-02 -2.277790000000000092e-01 -3.247740000000000071e-01 9.712999999999999412e-03 -3.419780000000000042e-01 -2.103150000000000019e-01 -6.481399999999999662e-02 -2.723249999999999837e-01 -2.578750000000000209e-01 -5.591499999999999942e-02 -5.829999999999999766e-02 -2.197220000000000006e-01 -7.729999999999999892e-03 -3.221140000000000114e-01 -2.771819999999999840e-01 -4.048999999999999648e-03 -9.586500000000000576e-02 -5.774800000000000072e-02 8.344699999999999340e-02 4.653439999999999799e-01 3.304969999999999852e-01 -1.173659999999999981e-01 2.072630000000000028e-01 2.346399999999999875e-01 -3.852300000000000169e-02 2.556729999999999836e-01 3.421939999999999982e-01 2.523600000000000149e-02 3.832309999999999883e-01 2.519500000000000073e-01 -5.821500000000000286e-02 2.415029999999999955e-01 5.411120000000000374e-01 2.479999999999999913e-02 3.835859999999999825e-01 1.274659999999999960e-01 -6.920900000000000662e-02 5.006969999999999477e-01 5.367600000000000149e-02 -1.611289999999999945e-01 1.216119999999999979e-01 4.693200000000000149e-01 4.239799999999999819e-02 -6.084669999999999801e-01 -1.510289999999999966e-01 1.633370000000000100e-01 -5.445839999999999570e-01 -5.574040000000000106e-01 -1.644299999999999928e-01 -6.085949999999999971e-01 -4.126699999999999813e-01 1.217280000000000029e-01 -5.676679999999999504e-01 -4.864660000000000095e-01 1.365510000000000057e-01 -2.809300000000000130e-01 -9.406899999999999984e-02 -6.341700000000000115e-02 -5.074689999999999479e-01 -1.339940000000000020e-01 2.311249999999999971e-01 -3.966779999999999751e-01 -5.739900000000000002e-01 7.932999999999999774e-02 -3.589899999999999758e-01 -1.665290000000000104e-01 -1.614109999999999989e-01
-6.142800000000000343e-02 2.548989999999999867e-01 2.447850000000000026e-01 2.356820000000000026e-01 3.080370000000000053e-01 -6.620099999999999596e-02 -9.021500000000000352e-02 6.931760000000000144e-01 7.297599999999999920e-02 9.397600000000000398e-02 4.146070000000000033e-01 -1.752239999999999909e-01 -1.631300000000000111e-02 5.929670000000000218e-01 -1.579990000000000006e-01 -1.091820000000000013e-01 2.801540000000000141e-01 -5.983399999999999830e-02 -9.097900000000000431e-02 6.023049999999999793e-01 1.948390000000000122e-01 -2.508770000000000167e-01 4.228890000000000149e-01 -1.830819999999999947e-01 3.756199999999999817e-02 -7.028180000000000538e-01 6.691700000000000426e-02 -4.261500000000000010e-02 -6.644459999999999811e-01 1.291300000000000087e-02 3.747799999999999743e-02 -5.821410000000000196e-01 1.082079999999999986e-01 2.814699999999999841e-02 -4.076500000000000123e-01 -2.876460000000000128e-01 3.314449999999999896e-01 -8.442380000000000440e-01 -1.546389999999999987e-01 -2.286110000000000086e-01 -5.461319999999999508e-01 4.548100000000000059e-02 -1.305260000000000031e-01 -3.640530000000000155e-01 3.242999999999999789e-03 3.149099999999999816e-02 -5.470880000000000187e-01 1.433820000000000094e-01 -4.114709999999999757e-01 9.506590000000000318e-01 -5.624900000000000039e-02 1.964750000000000107e-01 6.551759999999999806e-01 -3.168100000000000083e-02 -1.514500000000000048e-02 6.626079999999999748e-01 -5.191500000000000281e-02 1.325240000000000029e-01 9.076039999999999663e-01 3.678900000000000226e-02 -7.313000000000000056e-03 7.568319999999999492e-01 -3.404599999999999987e-02 3.509600000000000219e-02 6.772230000000000194e-01 9.293899999999999384e-02 1.433250000000000079e-01 7.603309999999999791e-01 -1.660600000000000132e-01 -2.014000000000000165e-02 6.254750000000000032e-01 -3.388599999999999945e-02 2.377549999999999941e-01 -6.862399999999999611e-01 -1.883769999999999889e-01 -8.538199999999999956e-02 -5.169970000000000399e-01 1.150670000000000026e-01 -6.898100000000000065e-02 -5.725930000000000186e-01 -3.472800000000000192e-02 3.501200000000000145e-02 -5.315060000000000340e-01 2.277579999999999882e-01 -1.511919999999999931e-01 -4.583599999999999897e-01 1.202030000000000043e-01 2.767400000000000068e-02 -5.311669999999999447e-01 1.046300000000000008e-01 1.342899999999999927e-01 -1.097196000000000060e+00 -6.970000000000000284e-04 4.243899999999999756e-02 -5.123170000000000224e-01 9.213499999999999468e-02
6.950999999999999714e-03 -5.765109999999999957e-01 -5.321800000000000141e-02 7.064900000000000346e-02 -5.674799999999999844e-01 -7.685699999999999477e-02 -2.098699999999999871e-02 -5.863460000000000338e-01 -4.441099999999999909e-02 6.805999999999999550e-02 -4.529270000000000240e-01 -4.057299999999999796e-02 1.880499999999999949e-01 -6.609490000000000087e-01 -1.707170000000000076e-01 -2.333709999999999951e-01 -5.323809999999999931e-01 1.072000000000000036e-01 2.448629999999999973e-01 -5.303440000000000376e-01 6.443100000000000216e-02 2.916639999999999788e-01 -1.002194999999999947e+00 -1.030070000000000013e-01 6.158999999999999891e-02 4.525989999999999736e-01 1.698749999999999982e-01 5.853969999999999452e-01 8.956399999999999917e-01 -7.969099999999999795e-02 1.306889999999999996e-01 8.670520000000000449e-01 4.555900000000000227e-02 -1.301209999999999867e-01 6.978010000000000046e-01 -4.603100000000000247e-02 1.385359999999999925e-01 5.924110000000000209e-01 -4.463600000000000206e-02 -4.115840000000000054e-01 7.795400000000000107e-01 1.497989999999999877e-01 1.255500000000000019e-02 7.365040000000000475e-01 1.027150000000000007e-01 8.778400000000000092e-02 5.231959999999999944e-01 -3.126099999999999712e-02 -3.127750000000000252e-01 -9.744350000000000511e-01 -1.432799999999999907e-01 1.127569999999999961e-01 -7.854430000000000023e-01 -4.943100000000000271e-02 -1.728270000000000084e-01 -7.153380000000000294e-01 -2.369070000000000065e-01 5.673799999999999677e-02 -7.197430000000000216e-01 9.292699999999999572e-02 8.710099999999999787e-02 -6.995620000000000172e-01 -6.951799999999999646e-02 -2.988620000000000165e-01 -1.146952999999999889e+00 3.251600000000000323e-02 1.623000000000000137e-02 -7.548289999999999722e-01 -1.120109999999999995e-01 -2.715400000000000105e-02 -7.343239999999999768e-01 -1.740900000000000086e-02 -1.446330000000000116e-01 6.413929999999999909e-01 5.068999999999999895e-02 -5.543800000000000117e-02 7.785570000000000546e-01 4.625300000000000245e-02 -9.828699999999999937e-02 6.230510000000000215e-01 -4.079000000000000160e-03 5.234300000000000064e-02 5.589239999999999764e-01 1.920600000000000085e-02 -6.413699999999999957e-02 7.209590000000000165e-01 1.404779999999999918e-01 2.703889999999999905e-01 9.338400000000000034e-01 4.113100000000000089e-02 -1.046600000000000030e-01 9.931999999999999718e-01 2.207600000000000118e-01 -4.075090000000000101e-01 6.450949999999999740e-01 3.949600000000000333e-02
1.870449999999999890e-01 1.122430999999999957e+00 1.276190000000000102e-01 3.333990000000000009e-01 1.025317000000000034e+00 -5.840800000000000158e-02 2.570040000000000102e-01 1.102330000000000032e+00 -3.369599999999999679e-02 2.364529999999999965e-01 1.097445000000000004e+00 7.541699999999999793e-02 4.304799999999999738e-01 7.077989999999999560e-01 -1.110519999999999979e-01 2.633210000000000273e-01 8.420199999999999907e-01 8.905200000000000615e-02 3.153329999999999744e-01 3.315230000000000121e-01 -1.574200000000000044e-01 3.972189999999999888e-01 8.682819999999999983e-01 1.453129999999999977e-01 -2.843600000000000017e-01 -7.942979999999999485e-01 1.317979999999999985e-01 -6.113699999999999690e-02 -1.103102999999999945e+00 -9.529799999999999383e-02 -6.243480000000000141e-01 -8.888770000000000282e-01 -6.882000000000000617e-02 -2.391000000000000070e-01 -3.689680000000000182e-01 -1.889999999999999970e-03 3.881600000000000328e-02 -9.498429999999999929e-01 -7.513999999999999846e-03 -4.667459999999999942e-01 -1.047811000000000048e+00 -2.577099999999999877e-02 -3.934960000000000124e-01 -9.575129999999999475e-01 4.993600000000000122e-02 -2.423240000000000116e-01 -1.036388000000000087e+00 4.937799999999999828e-02 1.329690000000000039e-01 1.087879000000000040e+00 -3.648499999999999660e-02 4.589460000000000206e-01 9.472040000000000459e-01 5.820000000000000173e-02 5.643380000000000063e-01 8.659719999999999640e-01 -1.143959999999999977e-01 3.396000000000000130e-01 1.139121999999999968e+00 1.588310000000000000e-01 2.909760000000000124e-01 1.064977000000000062e+00 -1.830940000000000067e-01 3.084910000000000152e-01 1.147515000000000063e+00 -1.327500000000000034e-02 6.353189999999999671e-01 1.231915000000000093e+00 -1.393270000000000064e-01 2.453319999999999945e-01 1.063426999999999900e+00 -3.661799999999999777e-02 -3.109660000000000202e-01 -1.484560000000000102e+00 2.435400000000000065e-02 -3.890830000000000122e-01 -1.002526999999999946e+00 3.331300000000000233e-02 -2.827040000000000108e-01 -1.302229000000000081e+00 4.569299999999999751e-02 -3.708139999999999770e-01 -1.461592999999999920e+00 -1.347669999999999979e-01 -4.870970000000000022e-01 -6.131360000000000143e-01 1.742329999999999990e-01 -4.076899999999999968e-01 -9.501469999999999638e-01 -1.702140000000000042e-01 -4.590520000000000156e-01 -6.438509999999999511e-01 2.560529999999999751e-01 -4.161239999999999939e-01 -1.040316000000000018e+00 -3.114600000000000007e-02
-2.275320000000000120e-01 -2.662630000000000274e-01 -1.067500000000000046e-02 -4.519199999999999884e-01 -2.409709999999999908e-01 7.105000000000000204e-03 -3.098980000000000068e-01 -7.375900000000000512e-02 1.938020000000000020e-01 -4.884859999999999758e-01 -7.671419999999999906e-01 -1.950079999999999869e-01 -4.076199999999999962e-02 -2.260739999999999972e-01 -2.099099999999999924e-02 -3.552989999999999760e-01 -8.839099999999999735e-02 4.274000000000000021e-02 -2.960409999999999986e-01 -3.393249999999999877e-01 2.587599999999999970e-02 8.946500000000000286e-02 -2.309470000000000134e-01 1.258899999999999950e-02 8.654000000000000581e-02 1.347109999999999974e-01 -1.401600000000000068e-01 -1.127080000000000026e-01 6.700070000000000192e-01 4.575800000000000006e-02 1.416540000000000021e-01 2.575760000000000272e-01 -5.268899999999999972e-02 3.605459999999999776e-01 1.492020000000000013e-01 1.634000000000000036e-02 4.535560000000000147e-01 1.942959999999999965e-01 -5.675299999999999789e-02 6.371660000000000101e-01 2.314289999999999958e-01 1.226990000000000025e-01 6.128000000000000114e-01 8.507109999999999950e-01 3.278999999999999970e-02 4.346559999999999868e-01 4.043359999999999732e-01 -3.513299999999999756e-02 -2.467679999999999874e-01 -3.340359999999999996e-01 1.833210000000000117e-01 -8.333599999999999342e-02 -2.700620000000000243e-01 -3.277700000000000058e-02 -4.023260000000000169e-01 -3.717980000000000174e-01 1.113119999999999943e-01 -4.874930000000000097e-01 -7.532330000000000414e-01 -3.340999999999999786e-03 -4.903370000000000228e-01 -7.345960000000000267e-01 2.133740000000000081e-01 -4.900450000000000084e-01 -1.982269999999999865e-01 -6.236699999999999883e-02 -2.909220000000000139e-01 -2.591129999999999822e-01 2.451400000000000107e-02 -3.778130000000000099e-01 -4.259560000000000013e-01 -8.838000000000000370e-03 1.783980000000000010e-01 6.020799999999999763e-02 -1.254450000000000010e-01 6.451449999999999685e-01 6.550319999999999476e-01 -1.804719999999999935e-01 3.315230000000000121e-01 2.810329999999999773e-01 -1.588890000000000025e-01 2.500300000000000092e-02 2.241769999999999874e-01 3.374300000000000216e-02 4.937500000000000222e-02 4.032879999999999798e-01 4.587700000000000111e-02 4.025699999999999834e-01 3.745890000000000053e-01 -2.293099999999999999e-02 3.303409999999999958e-01 3.111459999999999781e-01 -1.663389999999999869e-01 3.729489999999999750e-01 3.781519999999999881e-01 1.609680000000000000e-01
2.715730000000000088e-01 5.794300000000000145e-02 2.903000000000000198e-03 1.623380000000000101e-01 8.130900000000000627e-02 -4.084999999999999742e-02 3.920589999999999908e-01 3.390960000000000085e-01 -1.209499999999999985e-02 5.271209999999999507e-01 2.800570000000000004e-01 4.754999999999999678e-03 3.943729999999999736e-01 8.023299999999999876e-02 -7.432500000000000218e-02 4.642919999999999825e-01 9.948999999999999511e-03 9.896699999999999942e-02 9.030399999999999539e-02 1.052899999999999947e-01 -1.993560000000000054e-01 5.401839999999999975e-01 5.343849999999999989e-01 2.265109999999999901e-01 -5.180040000000000200e-01 -2.069300000000000028e-01 2.719399999999999942e-02 -6.634900000000000519e-02 -1.858239999999999892e-01 2.850099999999999856e-02 -5.527530000000000499e-01 -4.718269999999999964e-01 2.024899999999999964e-02 -2.861819999999999919e-01 -2.508650000000000047e-01 9.915000000000000202e-03 -3.353840000000000154e-01 1.865890000000000049e-01 8.453700000000000103e-02 -3.805660000000000154e-01 -5.422699999999999743e-02 -1.668179999999999941e-01 -1.310679999999999901e-01 -4.783850000000000047e-01 5.401100000000000345e-02 -3.604410000000000114e-01 -2.346679999999999877e-01 -6.352900000000000214e-02 5.676930000000000032e-01 3.829870000000000219e-01 1.276259999999999895e-01 1.257159999999999944e-01 4.657089999999999841e-01 1.268539999999999945e-01 4.088160000000000127e-01 1.761520000000000030e-01 7.408700000000000008e-02 2.987980000000000080e-01 5.856000000000000094e-02 7.842899999999999872e-02 5.211149999999999949e-01 6.961089999999999778e-01 4.118299999999999739e-02 2.056469999999999965e-01 4.899290000000000034e-01 1.698020000000000085e-01 2.595680000000000209e-01 -1.012939999999999952e-01 -1.151520000000000044e-01 5.155509999999999815e-01 5.366900000000000143e-02 1.046819999999999973e-01 -3.361759999999999748e-01 -3.214850000000000207e-01 -1.213400000000000069e-02 -2.827910000000000146e-01 -5.550190000000000401e-01 -3.288900000000000157e-02 -2.182989999999999930e-01 2.333800000000000111e-02 -3.604899999999999771e-02 -7.357280000000000486e-01 1.496199999999999961e-02 -2.265979999999999939e-01 -3.180089999999999861e-01 -2.699810000000000265e-01 -1.886519999999999864e-01 -4.255229999999999846e-01 -3.093279999999999919e-01 -1.435909999999999964e-01 -4.005489999999999884e-01 -3.736760000000000081e-01 1.592760000000000009e-01 -3.973289999999999877e-01 -2.227550000000000086e-01 -1.274450000000000027e-01
1.964000000000000121e-02 -4.041299999999999754e-02 2.126899999999999971e-02 1.321019999999999972e-01 -8.021799999999999764e-02 5.071300000000000113e-02 -2.224490000000000078e-01 2.856690000000000063e-01 1.278499999999999949e-02 -1.627810000000000090e-01 2.122529999999999972e-01 -1.660299999999999970e-02 3.303199999999999886e-02 -2.010939999999999950e-01 1.257280000000000064e-01 -1.580509999999999970e-01 6.074800000000000338e-02 4.627799999999999969e-02 -7.795199999999999352e-02 -2.007829999999999893e-01 -7.939599999999999436e-02 1.489599999999999952e-02 -1.308829999999999993e-01 4.972100000000000131e-02 4.029499999999999749e-02 -1.165000000000000020e-03 -1.011800000000000026e-02 -1.171520000000000061e-01 -1.432699999999999946e-02 -1.107699999999999935e-01 -4.553100000000000203e-02 3.569000000000000124e-03 3.524999999999999922e-03 -5.156899999999999679e-02 -1.117240000000000039e-01 2.157699999999999896e-02 -1.412690000000000057e-01 2.617299999999999835e-02 -8.640000000000000110e-03 -2.422759999999999914e-01 -8.178699999999999859e-02 -5.648100000000000342e-02 -2.457000000000000156e-02 -1.602010000000000101e-01 -4.266999999999999960e-03 -1.021309999999999996e-01 -1.250899999999999929e-02 -3.869299999999999823e-02 1.018840000000000023e-01 -2.438099999999999989e-02 -4.633999999999999925e-02 4.073000000000000231e-02 3.605160000000000031e-01 2.330799999999999886e-02 1.415289999999999881e-01 1.301080000000000014e-01 1.256700000000000005e-02 4.116999999999999826e-02 -2.836259999999999892e-01 -1.348100000000000132e-01 -7.427499999999999380e-02 6.254800000000000637e-02 3.478300000000000142e-02 4.481189999999999896e-01 1.010270000000000057e-01 2.223360000000000058e-01 -2.611000000000000126e-02 2.241599999999999843e-02 9.308700000000000307e-02 1.054879999999999984e-01 7.867999999999999994e-02 -1.170110000000000039e-01 2.459400000000000128e-02 -2.279190000000000105e-01 1.262119999999999909e-01 -7.354499999999999926e-02 -2.087479999999999891e-01 -1.044299999999999951e-01 3.729199999999999876e-02 -4.863100000000000062e-02 -4.060000000000000024e-04 1.025869999999999976e-01 2.561599999999999988e-02 1.358540000000000025e-01 -1.088090000000000029e-01 3.542409999999999726e-01 -1.367029999999999912e-01 3.364899999999999836e-02 -8.079300000000000370e-02 -3.092900000000000163e-02 1.580340000000000078e-01 -2.574200000000000099e-02 -1.005199999999999982e-01 1.534270000000000078e-01 2.113790000000000113e-01 1.637500000000000067e-02
3.393660000000000010e-01 2.230479999999999963e-01 1.686610000000000054e-01 6.985700000000000243e-02 -1.183260000000000006e-01 5.981899999999999717e-02 1.301289999999999947e-01 1.027949999999999975e-01 1.183639999999999970e-01 3.872610000000000219e-01 4.299399999999999750e-02 -3.609300000000000008e-02 4.537439999999999807e-01 9.006000000000000116e-02 -1.605099999999999930e-02 3.042730000000000157e-01 6.523600000000000232e-02 9.052799999999999736e-02 3.915750000000000064e-01 1.895670000000000133e-01 2.041040000000000076e-01 4.704420000000000268e-01 -2.849630000000000218e-01 -2.164709999999999968e-01 -2.902540000000000120e-01 1.343270000000000020e-01 -1.119620000000000060e-01 -2.221660000000000024e-01 -1.798170000000000046e-01 -2.241500000000000090e-02 -2.990249999999999853e-01 4.835400000000000115e-02 -9.959199999999999997e-02 -5.016150000000000331e-01 -4.452849999999999864e-01 2.086000000000000007e-02 -9.241000000000000603e-02 -3.612779999999999880e-01 -2.058379999999999932e-01 -6.388340000000000130e-01 1.212659999999999988e-01 -2.194300000000000070e-02 -4.344419999999999948e-01 9.339000000000000079e-03 -1.373000000000000088e-03 -1.690059999999999896e-01 -5.239899999999999558e-01 7.402100000000000346e-02 5.590349999999999486e-01 -1.046129999999999977e-01 2.154749999999999999e-01 5.603960000000000052e-01 4.865129999999999733e-01 1.224100000000000049e-01 5.817579999999999973e-01 1.096899999999999958e-02 2.890249999999999764e-01 3.982950000000000101e-01 2.286890000000000034e-01 -1.521999999999999915e-02 9.888199999999999767e-02 9.534099999999999520e-02 1.342299999999999917e-02 5.534379999999999855e-01 2.426449999999999996e-01 -1.521510000000000085e-01 2.456450000000000022e-01 2.903270000000000017e-01 5.198900000000000049e-02 3.912849999999999939e-01 1.211440000000000017e-01 -2.002400000000000013e-02 -5.258800000000000141e-01 -1.686330000000000051e-01 -1.577189999999999981e-01 -3.480019999999999780e-01 -3.013299999999999867e-01 -3.399499999999999744e-02 -1.827320000000000055e-01 -2.891469999999999874e-01 -2.609960000000000058e-01 -6.078970000000000207e-01 3.161709999999999798e-01 5.449400000000000077e-02 -4.998819999999999930e-01 -3.372080000000000077e-01 -1.193889999999999951e-01 -3.175049999999999817e-01 1.933880000000000043e-01 7.806499999999999551e-02 -4.306220000000000048e-01 1.011399999999999938e-01 -1.818130000000000024e-01 -3.751110000000000277e-01 1.278000000000000056e-03 1.118070000000000036e-01
-1.614869999999999917e-01 2.971960000000000157e-01 9.814599999999999713e-02 1.390810000000000102e-01 1.389600000000000002e-01 -1.725869999999999904e-01 -2.603099999999999858e-01 9.513199999999999434e-02 -4.644800000000000317e-02 7.827299999999999536e-02 2.729010000000000047e-01 2.797799999999999940e-02 1.676479999999999915e-01 4.609710000000000196e-01 1.594990000000000019e-01 -2.083609999999999907e-01 1.991709999999999869e-01 -1.820050000000000001e-01 -2.687390000000000057e-01 1.852399999999999880e-01 -6.744500000000000495e-02 -5.430000000000000104e-02 1.001599999999999990e-01 -2.194000000000000204e-03 3.985099999999999754e-01 3.166169999999999818e-01 1.500759999999999872e-01 2.057809999999999917e-01 1.021579999999999988e-01 -8.744200000000000583e-02 -3.932299999999999685e-02 -2.231630000000000003e-01 -9.377999999999999184e-03 9.332799999999999430e-02 6.548000000000000001e-03 8.075300000000000533e-02 2.332430000000000059e-01 3.633700000000000124e-02 -2.540999999999999856e-02 8.837100000000000510e-02 -2.109429999999999916e-01 8.807800000000000351e-02 3.283079999999999887e-01 -1.071710000000000024e-01 -8.281399999999999872e-02 1.811589999999999867e-01 1.778929999999999956e-01 9.789699999999999791e-02 -3.957359999999999767e-01 2.478819999999999912e-01 -4.912899999999999906e-02 2.576189999999999869e-01 -3.834900000000000114e-02 -1.413079999999999892e-01 -2.591019999999999990e-01 -2.551579999999999959e-01 -1.506599999999999953e-02 -3.045919999999999739e-01 3.428300000000000097e-02 -1.658820000000000017e-01 -3.346520000000000050e-01 -1.855739999999999890e-01 -8.600399999999999712e-02 -4.103600000000000025e-01 -1.835499999999999909e-01 -7.170500000000000485e-02 -6.980500000000000593e-02 2.577940000000000231e-01 -3.615399999999999864e-02 -2.123520000000000130e-01 2.580290000000000084e-01 -9.104299999999999893e-02 9.521000000000000296e-02 2.173399999999999985e-02 1.413999999999999979e-02 -9.350000000000000672e-03 -1.701600000000000057e-01 3.003850000000000131e-01 4.728510000000000213e-01 -3.933610000000000162e-01 6.960800000000000320e-02 1.853899999999999992e-02 -2.367950000000000055e-01 1.110970000000000013e-01 -9.424200000000000632e-02 -2.377279999999999949e-01 3.542399999999999716e-02 8.996500000000000330e-02 -1.910080000000000111e-01 2.595799999999999844e-02 2.087539999999999951e-01 -4.521660000000000124e-01 8.457599999999999840e-02 2.606999999999999942e-02 -3.238820000000000032e-01 -1.159800000000000067e-02
1.490004052191345497e-04 -8.899932159591834532e-05 9.999999999999999547e-07 1.470004006661139700e-04 -8.799933070201138431e-05 -9.999999999999999547e-07 1.460003915600416584e-04 -8.599933525507345953e-05 -9.999999999999999547e-07 1.410004143253001821e-04 -9.099935802022831905e-05 9.999999999999999547e-07 1.410004052192174865e-04 -8.899935802024903290e-05 -1.999999999999999909e-06 1.430003824539900607e-04 -8.399934891421818970e-05 1.999999999999999909e-06 1.440004143252690842e-04 -9.099934436110430273e-05 -1.999999999999999909e-06 1.480004234313102708e-04 -9.299932614891822475e-05 1.999999999999999909e-06 -1.500003870069588558e-04 8.499931704291847944e-05 -1.999999999999999909e-06 -1.470003779009072852e-04 8.299933070206320961e-05 1.999999999999999909e-06 -1.480003505826488685e-04 7.699932614908407114e-05 -9.999999999999999547e-07 -1.470003687948246167e-04 8.099933070208395057e-05 9.999999999999999547e-07 -1.480003779008969012e-04 8.299932614902187536e-05 -9.999999999999999547e-07 -1.510003642417418141e-04 7.999931248992897049e-05 9.999999999999999547e-07 -1.510003596887004662e-04 7.899931248993932742e-05 3.000000000000000076e-06 -1.520003596886901093e-04 7.899930793689799316e-05 -3.000000000000000076e-06 1.440003414766076819e-04 -7.499934436127013557e-05 0.000000000000000000e+00 1.440003414766076819e-04 -7.499934436127013557e-05 9.999999999999999547e-07 1.410003460296801276e-04 -7.599935802038379495e-05 0.000000000000000000e+00 1.400003460296904846e-04 -7.599936257342512920e-05 0.000000000000000000e+00 1.380003369236285299e-04 -7.399937167952852512e-05 0.000000000000000000e+00 1.380003323705871821e-04 -7.299937167953889560e-05 0.000000000000000000e+00 1.420003596887937599e-04 -7.899935346731134925e-05 0.000000000000000000e+00 1.420003596887937599e-04 -7.899935346731134925e-05 -9.999999999999999547e-07 -1.370003961131762728e-04 8.699937623243512443e-05 -9.999999999999999547e-07 -1.360003961131866297e-04 8.699938078547645869e-05 9.999999999999999547e-07 -1.350003733479903289e-04 8.199938533856961824e-05 -9.999999999999999547e-07 -1.340003779010420337e-04 8.299938989160058202e-05 9.999999999999999547e-07 -1.360003870071039612e-04 8.499938078549719965e-05 -9.999999999999999547e-07 -1.380003824540418725e-04 8.399937167942487452e-05 9.999999999999999547e-07 -1.390003733479488470e-04 8.199936712640426768e-05 -1.999999999999999909e-06 -1.390003779009901948e-04 8.299936712639391075e-05 1.999999999999999909e-06