5.727004765000000219e+00 -2.242579642974133427e-24 0.000000000000000000e+00 2.863502467435245169e+00 4.959731567499999549e+00 0.000000000000000000e+00 2.863502491153414375e+00 1.653243897713202459e+00 4.676079770999999496e+00
5.561031768000000319e+00 0.000000000000000000e+00 0.000000000000000000e+00 2.819921792999999788e+00 5.076043689999999664e+00 0.000000000000000000e+00 2.898619211000000195e+00 1.737168827999999943e+00 4.725224801000000419e+00
5.572162517999999842e+00 0.000000000000000000e+00 0.000000000000000000e+00 2.916578958000000110e+00 5.005915444000000214e+00 0.000000000000000000e+00 2.802665553000000198e+00 1.629245837000000030e+00 4.548062498000000176e+00
5.610280051000000157e+00 0.000000000000000000e+00 0.000000000000000000e+00 2.697587861000000142e+00 4.963708830999999932e+00 0.000000000000000000e+00 2.867007914999999851e+00 1.722417703000000078e+00 4.615881164000000147e+00
5.565393119000000333e+00 0.000000000000000000e+00 0.000000000000000000e+00 2.786158518999999778e+00 4.931390974000000149e+00 0.000000000000000000e+00 2.777227095000000201e+00 1.562377915999999978e+00 4.755977071000000223e+00
5.838397238999999850e+00 0.000000000000000000e+00 0.000000000000000000e+00 3.022394579999999831e+00 4.883027206000000398e+00 0.000000000000000000e+00 2.963241200000000131e+00 1.499614213999999945e+00 4.610222757999999921e+00
5.663243081000000068e+00 0.000000000000000000e+00 0.000000000000000000e+00 2.845979604000000052e+00 4.969732353999999575e+00 0.000000000000000000e+00 2.852631809000000018e+00 1.580059332999999899e+00 4.586750002999999687e+00
5.651437867000000281e+00 0.000000000000000000e+00 0.000000000000000000e+00 2.749725463999999953e+00 4.847490404000000197e+00 0.000000000000000000e+00 2.732275549000000137e+00 1.511857946999999980e+00 4.727517080000000149e+00
5.648887895999999742e+00 0.000000000000000000e+00 0.000000000000000000e+00 2.956533895000000189e+00 4.881239316000000272e+00 0.000000000000000000e+00 2.779499615000000201e+00 1.645469663000000082e+00 4.732175136999999587e+00
5.704518776999999652e+00 0.000000000000000000e+00 0.000000000000000000e+00 2.795877646000000105e+00 4.994110930999999809e+00 0.000000000000000000e+00 2.751356204999999999e+00 1.788808492000000028e+00 4.638247472999999843e+00
5.851760690999999959e+00 0.000000000000000000e+00 0.000000000000000000e+00 2.949674684000000102e+00 5.060000561999999924e+00 0.000000000000000000e+00 2.897093352999999816e+00 1.666228521000000073e+00 4.599773790000000417e+00
6.191929021000011524e+00 2.484261841479511215e-23 -2.829794775241486207e-24 3.095965035405690013e+00 5.362367497499983315e+00 -9.824199830379963044e-24 3.095965025299849405e+00 1.787456045037390640e+00 5.055688534333321549e+00
6.337616782999999643e+00 0.000000000000000000e+00 0.000000000000000000e+00 3.038546310000000084e+00 5.391614010999999707e+00 0.000000000000000000e+00 3.157525108999999830e+00 1.760951326999999900e+00 5.114306722000000249e+00
6.201803767000000356e+00 0.000000000000000000e+00 0.000000000000000000e+00 3.027972515000000087e+00 5.452400543000000432e+00 0.000000000000000000e+00 3.174817723999999952e+00 1.843691304000000031e+00 5.095226098000000370e+00
6.119556654000000151e+00 0.000000000000000000e+00 0.000000000000000000e+00 3.098351885000000028e+00 5.506514896999999742e+00 0.000000000000000000e+00 3.196239579000000219e+00 1.745147537000000026e+00 5.035874617000000164e+00
6.241359295999999723e+00 0.000000000000000000e+00 0.000000000000000000e+00 3.156605027999999979e+00 5.352189221999999802e+00 0.000000000000000000e+00 3.109383166000000198e+00 1.655999820999999983e+00 4.921447974000000336e+00
6.247075612999999805e+00 0.000000000000000000e+00 0.000000000000000000e+00 3.258249515000000152e+00 5.284361256999999590e+00 0.000000000000000000e+00 3.105577987999999845e+00 1.669432167000000078e+00 5.065366992999999596e+00
6.362283020999999650e+00 0.000000000000000000e+00 0.000000000000000000e+00 3.179655453000000076e+00 5.316204954999999899e+00 0.000000000000000000e+00 3.048789535000000051e+00 1.845025783000000086e+00 5.092393798999999888e+00
6.107118808000000065e+00 0.000000000000000000e+00 0.000000000000000000e+00 3.087730716999999903e+00 5.337894120999999714e+00 0.000000000000000000e+00 3.122335726000000200e+00 1.661287584999999956e+00 5.030824508000000250e+00
6.326061931999999999e+00 0.000000000000000000e+00 0.000000000000000000e+00 3.054420732000000083e+00 5.380411507999999898e+00 0.000000000000000000e+00 3.109847091999999869e+00 1.800601252000000096e+00 5.023034492999999934e+00
6.070579217999999777e+00 0.000000000000000000e+00 0.000000000000000000e+00 2.909534497000000108e+00 5.335634155000000156e+00 0.000000000000000000e+00 3.022968624000000215e+00 1.920989411999999952e+00 5.087234601999999661e+00
6.271023079999999972e+00 0.000000000000000000e+00 0.000000000000000000e+00 3.094010727000000127e+00 5.275156052999999901e+00 0.000000000000000000e+00 2.983816892000000109e+00 1.823616837999999962e+00 5.103731838999999937e+00
