2.863500024147132450e+00 1.653239980803321130e+00 1.169019968000038157e+00 4.295250051223908905e+00 2.479869979159933013e+00 3.507059952000012082e+00 4.295250045364790381e+00 4.133109968553331903e+00 1.169019944500029329e+00 5.727000072441482459e+00 4.959729966909943499e+00 3.507059928500048329e+00 5.727000024147132606e+00 1.653239956303341529e+00 1.169019943500058556e+00 7.158760051223908683e+00 2.479869954659867926e+00 3.507059927499946994e+00 7.158760045364790159e+00 4.133109944053265927e+00 1.169019919999964241e+00 8.590510072441480460e+00 4.959729942409878412e+00 3.507059903999983685e+00 5.727000096588700018e+00 6.612979972213244295e+00 4.676079921000020789e+00 4.295250069511922675e+00 5.786349973856632189e+00 2.338039937000047086e+00 4.295250075371041198e+00 4.133109984463234632e+00 4.676079944500028951e+00 2.863500048294350009e+00 3.306489986106622148e+00 2.338039960500010395e+00 8.590510096588699795e+00 6.612979947713179207e+00 4.676079896499955701e+00 7.158760069511922453e+00 5.786349949356566214e+00 2.338039912499981998e+00 7.158760075371040976e+00 4.133109959963168656e+00 4.676079919999963863e+00 5.727000048294350165e+00 3.306489961606642325e+00 2.338039936000030572e+00
2.823599999999999888e+00 1.705689999999999928e+00 1.181529999999999969e+00 4.269560000000000244e+00 2.570930000000000160e+00 3.543480000000000185e+00 4.222380000000000244e+00 4.233830000000000204e+00 1.168379999999999974e+00 5.677590000000000359e+00 5.111150000000000304e+00 3.554069999999999840e+00 5.610599999999999810e+00 1.705079999999999929e+00 1.174339999999999939e+00 7.052520000000000344e+00 2.575930000000000053e+00 3.547480000000000189e+00 7.027529999999999610e+00 4.231690000000000396e+00 1.180379999999999985e+00 8.456300000000000594e+00 5.112009999999999721e+00 3.546800000000000175e+00 5.730070000000000441e+00 6.808790000000000120e+00 4.715690000000000381e+00 4.272569999999999979e+00 5.939059999999999562e+00 2.362369999999999859e+00 9.866799999999999571e+00 4.284620000000000317e+00 4.716549999999999798e+00 8.413610000000000255e+00 3.414439999999999920e+00 2.371309999999999807e+00 5.679599999999999760e+00 1.737489999999999979e+00 4.724920000000000009e+00 7.049610000000000376e+00 5.944569999999999688e+00 2.362649999999999917e+00 4.187409999999999854e+00 2.528649999999999842e+00 9.979999999999999288e-03 5.651019999999999932e+00 3.405069999999999819e+00 2.372720000000000162e+00
2.812479999999999869e+00 1.649159999999999959e+00 1.126560000000000006e+00 4.223180000000000156e+00 2.478540000000000187e+00 3.413409999999999833e+00 4.282289999999999708e+00 4.161769999999999747e+00 1.135099999999999998e+00 5.686600000000000321e+00 4.966510000000000424e+00 3.423350000000000115e+00 5.594020000000000437e+00 1.668250000000000011e+00 1.141839999999999966e+00 7.021980000000000111e+00 2.481510000000000105e+00 3.418689999999999785e+00 7.068030000000000257e+00 4.161999999999999922e+00 1.137199999999999989e+00 8.463810000000000500e+00 4.980629999999999669e+00 3.401310000000000056e+00 8.484429999999999694e+00 5.002839999999999954e+00 3.059999999999999786e-03 4.318979999999999819e+00 5.809739999999999682e+00 2.279040000000000177e+00 1.461470000000000047e+00 2.506810000000000205e+00 1.700000000000000122e-04 8.431599999999999540e+00 3.318119999999999958e+00 2.275240000000000151e+00 2.798740000000000006e+00 1.014999999999999930e-02 9.100000000000000450e-03 4.187999999999999723e+00 8.155000000000000027e-01 2.273190000000000044e+00 7.042690000000000339e+00 4.134619999999999962e+00 4.547030000000000349e+00 5.649000000000000021e+00 3.321810000000000151e+00 2.263580000000000148e+00
2.787980000000000125e+00 1.668609999999999927e+00 1.148490000000000011e+00 4.223950000000000315e+00 2.535239999999999938e+00 3.457959999999999923e+00 4.138989999999999725e+00 4.148810000000000109e+00 1.153410000000000046e+00 5.574970000000000425e+00 5.017050000000000232e+00 3.463270000000000071e+00 5.596650000000000347e+00 1.674479999999999968e+00 1.152509999999999923e+00 7.022859999999999658e+00 2.522580000000000044e+00 3.460080000000000044e+00 6.944869999999999877e+00 4.148570000000000313e+00 1.159270000000000023e+00 8.385350000000000747e+00 5.027160000000000295e+00 3.450439999999999952e+00 8.473179999999999268e+00 1.736720000000000041e+00 4.606480000000000352e+00 9.739919999999999689e+00 5.822530000000000427e+00 2.307970000000000077e+00 4.223690000000000389e+00 4.215720000000000134e+00 4.609740000000000393e+00 8.384330000000000283e+00 3.338690000000000158e+00 2.309289999999999843e+00 5.490540000000000198e+00 4.960280000000000022e+00 1.336999999999999994e-02 4.235809999999999853e+00 8.626800000000000024e-01 2.307269999999999932e+00 7.019720000000000404e+00 4.198889999999999567e+00 4.612969999999999793e+00 5.576349999999999696e+00 3.353130000000000166e+00 2.314880000000000049e+00
2.776019999999999932e+00 1.620300000000000074e+00 1.194749999999999979e+00 4.176989999999999981e+00 2.409149999999999903e+00 3.564589999999999925e+00 4.175609999999999822e+00 4.088799999999999990e+00 1.189279999999999893e+00 5.562739999999999796e+00 4.860009999999999941e+00 3.557080000000000020e+00 5.564919999999999867e+00 1.624020000000000019e+00 1.190930000000000044e+00 6.951859999999999928e+00 2.401639999999999997e+00 3.563060000000000116e+00 6.953289999999999971e+00 4.088879999999999626e+00 1.199100000000000055e+00 8.362379999999999924e+00 4.861939999999999706e+00 3.573589999999999822e+00 8.350600000000000023e+00 4.930150000000000254e+00 6.300000000000000261e-04 6.949679999999999858e+00 7.840899999999999537e-01 2.376349999999999962e+00 4.170309999999999739e+00 4.018189999999999706e+00 4.745840000000000281e+00 8.335309999999999775e+00 3.236950000000000216e+00 2.386890000000000178e+00 8.337279999999999802e+00 6.484200000000000408e+00 4.753140000000000143e+00 6.954299999999999926e+00 5.706520000000000259e+00 2.382600000000000051e+00 6.954740000000000144e+00 4.028150000000000119e+00 4.754649999999999821e+00 5.558370000000000033e+00 3.251409999999999911e+00 2.373749999999999805e+00
2.952920000000000211e+00 1.606579999999999897e+00 1.148039999999999949e+00 4.437730000000000175e+00 2.345429999999999904e+00 3.457759999999999945e+00 4.470110000000000028e+00 4.034729999999999706e+00 1.153259999999999952e+00 5.947429999999999772e+00 4.782499999999999751e+00 3.457370000000000054e+00 5.877069999999999794e+00 1.596189999999999998e+00 1.150279999999999969e+00 7.358749999999999680e+00 2.346130000000000049e+00 3.461079999999999934e+00 7.386059999999999626e+00 4.036880000000000024e+00 1.152360000000000051e+00 8.860480000000000800e+00 4.773200000000000109e+00 3.467810000000000059e+00 2.967130000000000045e+00 1.504450000000000065e+00 4.607619999999999827e+00 1.033511000000000024e+01 5.628490000000000215e+00 2.304469999999999796e+00 7.346750000000000114e+00 2.446689999999999809e+00 7.420000000000000380e-03 8.832050000000000622e+00 3.198020000000000085e+00 2.305229999999999890e+00 5.936079999999999579e+00 4.881590000000000096e+00 2.100000000000000087e-04 4.399879999999999569e+00 7.512600000000000389e-01 2.306529999999999969e+00 7.386260000000000048e+00 3.947360000000000202e+00 4.604899999999999771e+00 5.921920000000000073e+00 3.181779999999999831e+00 2.294000000000000039e+00
2.837429999999999897e+00 1.634409999999999918e+00 1.139839999999999964e+00 4.273679999999999701e+00 2.436949999999999950e+00 3.439449999999999896e+00 4.261219999999999786e+00 4.123020000000000351e+00 1.148130000000000095e+00 5.691559999999999953e+00 4.912810000000000343e+00 3.435290000000000177e+00 5.659980000000000011e+00 1.644209999999999949e+00 1.147599999999999953e+00 7.114309999999999690e+00 2.435979999999999812e+00 3.438149999999999817e+00 7.089819999999999567e+00 4.122630000000000017e+00 1.148120000000000029e+00 8.509399999999999409e+00 4.901539999999999786e+00 3.440109999999999779e+00 2.857330000000000148e+00 1.578319999999999945e+00 4.575149999999999828e+00 4.273220000000000240e+00 5.758860000000000312e+00 2.293000000000000149e+00 1.429459999999999953e+00 2.478380000000000027e+00 4.089999999999999886e-03 8.515209999999999724e+00 3.284790000000000099e+00 2.304739999999999789e+00 5.686149999999999594e+00 1.581679999999999975e+00 4.574410000000000309e+00 4.257469999999999644e+00 8.014200000000000212e-01 2.302690000000000126e+00 7.107149999999999856e+00 4.065120000000000289e+00 4.586669999999999803e+00 5.682470000000000354e+00 3.278379999999999850e+00 2.289680000000000160e+00
2.792980000000000018e+00 1.592799999999999994e+00 1.172840000000000105e+00 4.157740000000000435e+00 2.333200000000000163e+00 3.547680000000000167e+00 4.164049999999999585e+00 4.015209999999999724e+00 1.175429999999999975e+00 5.525879999999999903e+00 4.771139999999999937e+00 3.545999999999999819e+00 5.613010000000000055e+00 1.594649999999999901e+00 1.180050000000000043e+00 6.974879999999999747e+00 2.345250000000000057e+00 3.545360000000000067e+00 6.976490000000000080e+00 4.012649999999999828e+00 1.182220000000000049e+00 8.347129999999999939e+00 4.767570000000000086e+00 3.546660000000000146e+00 2.753420000000000201e+00 4.842489999999999739e+00 7.779999999999999589e-03 4.122320000000000206e+00 5.602540000000000298e+00 2.365060000000000162e+00 4.111650000000000027e+00 3.932650000000000201e+00 4.727210000000000356e+00 2.753950000000000120e+00 3.171580000000000066e+00 2.360149999999999970e+00 2.825590000000000046e+00 1.800000000000000113e-04 1.100000000000000039e-04 6.941419999999999924e+00 5.600200000000000067e+00 2.366109999999999935e+00 4.200420000000000265e+00 2.423770000000000202e+00 1.000000000000000082e-05 5.569259999999999877e+00 3.180670000000000108e+00 2.361699999999999910e+00
2.848440000000000083e+00 1.633610000000000007e+00 1.181910000000000016e+00 4.239130000000000287e+00 2.457320000000000171e+00 3.548490000000000144e+00 4.324349999999999916e+00 4.067599999999999660e+00 1.179540000000000033e+00 5.719280000000000364e+00 4.895809999999999995e+00 3.544130000000000003e+00 5.663009999999999877e+00 1.640609999999999902e+00 1.181459999999999955e+00 7.075070000000000192e+00 2.459970000000000212e+00 3.540490000000000137e+00 7.144580000000000375e+00 4.075380000000000003e+00 1.174279999999999990e+00 8.544629999999999725e+00 4.881739999999999746e+00 3.540119999999999933e+00 8.603479999999999350e+00 4.878160000000000274e+00 8.909999999999999518e-03 4.361010000000000275e+00 5.692230000000000345e+00 2.363109999999999822e+00 7.130899999999999572e+00 2.445650000000000102e+00 2.749999999999999840e-03 8.507899999999999352e+00 3.266519999999999868e+00 2.371420000000000083e+00 5.779589999999999783e+00 4.880060000000000286e+00 9.399999999999999719e-04 4.213820000000000121e+00 8.246200000000000196e-01 2.367300000000000182e+00 7.083960000000000257e+00 4.085799999999999876e+00 4.726200000000000401e+00 5.684789999999999566e+00 3.269449999999999967e+00 2.372269999999999879e+00
2.815650000000000208e+00 1.698490000000000055e+00 1.161399999999999988e+00 4.197560000000000180e+00 2.596740000000000048e+00 3.470629999999999882e+00 4.214710000000000178e+00 4.201439999999999841e+00 1.171680000000000055e+00 5.582959999999999923e+00 5.088669999999999582e+00 3.485920000000000130e+00 5.675810000000000244e+00 1.696779999999999955e+00 1.170239999999999947e+00 7.038190000000000168e+00 2.593910000000000160e+00 3.476929999999999854e+00 7.059450000000000003e+00 4.195140000000000313e+00 1.161249999999999893e+00 8.440569999999999240e+00 5.084819999999999673e+00 3.476770000000000138e+00 2.765050000000000008e+00 1.792969999999999953e+00 4.630589999999999762e+00 9.864850000000000563e+00 5.888580000000000148e+00 2.329549999999999788e+00 7.105500000000000149e+00 2.510349999999999859e+00 6.400000000000000307e-03 8.463480000000000558e+00 3.393330000000000179e+00 2.315370000000000150e+00 8.400029999999999220e+00 6.777999999999999581e+00 4.636020000000000252e+00 4.218069999999999986e+00 8.965699999999999781e-01 2.312850000000000072e+00 7.008709999999999773e+00 4.292600000000000193e+00 4.631770000000000387e+00 5.632909999999999862e+00 3.381730000000000125e+00 2.326169999999999849e+00
2.926349999999999785e+00 1.683210000000000095e+00 1.148400000000000087e+00 4.369180000000000064e+00 2.514990000000000059e+00 3.456529999999999880e+00 4.404889999999999972e+00 4.209699999999999775e+00 1.156889999999999974e+00 5.846289999999999765e+00 5.041089999999999627e+00 3.448589999999999822e+00 5.843530000000000335e+00 1.686849999999999961e+00 1.153850000000000042e+00 7.296059999999999768e+00 2.520690000000000097e+00 3.443350000000000133e+00 7.323249999999999815e+00 4.210499999999999687e+00 1.151480000000000059e+00 8.773780000000000356e+00 5.041109999999999758e+00 3.441899999999999959e+00 2.951740000000000030e+00 5.048639999999999795e+00 1.153000000000000032e-02 7.296249999999999680e+00 8.446399999999999464e-01 2.293960000000000221e+00 7.313310000000000421e+00 2.527039999999999953e+00 1.920000000000000049e-03 8.771330000000000737e+00 3.368489999999999984e+00 2.298939999999999984e+00 5.880469999999999864e+00 5.048510000000000275e+00 1.383999999999999987e-02 4.377849999999999575e+00 8.366200000000000303e-01 2.307510000000000172e+00 7.294139999999999624e+00 4.196159999999999890e+00 4.596449999999999925e+00 5.839929999999999843e+00 3.363160000000000149e+00 2.293019999999999836e+00
9.287890262405788633e+00 5.362369545500159873e+00 -4.249999157085679585e-07 1.083588039105566025e+01 6.256099523018391118e+00 2.527839504166447870e+00 7.739910131202643484e+00 2.681179621250053380e+00 -3.164998657411974992e-07 9.287890259852519037e+00 3.574909598768774011e+00 2.527839612666833879e+00 6.191930262405793250e+00 5.362369696999941482e+00 -3.210000704183302678e-07 7.739910391055667915e+00 6.256099674518662113e+00 2.527839608166629226e+00 4.643950131202648990e+00 2.681179772749834989e+00 -2.125000204509598879e-07 6.191930259852523655e+00 3.574909750268555619e+00 2.527839716666679060e+00 1.547980064963253133e+00 8.937299375672612678e-01 6.319599291667010732e-01 3.095960193613463751e+00 1.787459915086192508e+00 3.159809858333400445e+00 3.095960196165907341e+00 3.574909861817367140e+00 6.319598206668618490e-01 4.643950324816119135e+00 4.468639839335808439e+00 3.159809749833225379e+00 4.643950064963248359e+00 8.937297860669903837e-01 6.319598251665198285e-01 6.191930193613459643e+00 1.787459763585921735e+00 3.159809754333219090e+00 6.191930196165902345e+00 3.574909710317096589e+00 6.319597166666806043e-01 7.739910324816113629e+00 4.468639687836026830e+00 3.159809645833380198e+00
3.043740000000000112e+00 5.379360000000000142e+00 3.579999999999999849e-03 7.915759999999999685e+00 8.861400000000000388e-01 2.563790000000000013e+00 7.855620000000000047e+00 2.694560000000000066e+00 1.340000000000000045e-03 9.418620000000000658e+00 3.572799999999999976e+00 2.564060000000000006e+00 9.358520000000000394e+00 7.135919999999999597e+00 5.114020000000000010e+00 4.746150000000000091e+00 8.833400000000000141e-01 2.554269999999999818e+00 4.686969999999999636e+00 2.686189999999999856e+00 7.939999999999999142e-03 6.263440000000000119e+00 3.582800000000000207e+00 2.570069999999999855e+00 1.559709999999999930e+00 8.772100000000000453e-01 6.391700000000000159e-01 3.145529999999999937e+00 1.774829999999999908e+00 3.196489999999999831e+00 3.084020000000000206e+00 3.580259999999999998e+00 6.307300000000000129e-01 4.665890000000000093e+00 4.467679999999999652e+00 3.195489999999999942e+00 4.729829999999999757e+00 8.937199999999999589e-01 6.501799999999999802e-01 6.310810000000000031e+00 1.778790000000000093e+00 3.196889999999999787e+00 6.250779999999999781e+00 3.594339999999999868e+00 6.358899999999999553e-01 7.839409999999999989e+00 4.479919999999999902e+00 3.209760000000000169e+00
3.175279999999999880e+00 1.845450000000000035e+00 5.093619999999999592e+00 1.599080000000000057e+00 9.245100000000000540e-01 2.538819999999999855e+00 7.708660000000000068e+00 2.729989999999999917e+00 9.520000000000000684e-03 9.294460000000000832e+00 3.660350000000000215e+00 2.556859999999999911e+00 6.134890000000000398e+00 5.446649999999999991e+00 9.469999999999999252e-03 4.699519999999999698e+00 9.212000000000000188e-01 2.538030000000000008e+00 7.789710000000000356e+00 4.569890000000000008e+00 5.095220000000000304e+00 6.196519999999999584e+00 3.642710000000000115e+00 2.543120000000000047e+00 1.543809999999999905e+00 8.963600000000000456e-01 6.341999999999999860e-01 3.142329999999999846e+00 1.824770000000000003e+00 3.186010000000000009e+00 3.064880000000000049e+00 3.637830000000000119e+00 6.374199999999999866e-01 4.655160000000000409e+00 4.557400000000000340e+00 3.182710000000000150e+00 4.659309999999999619e+00 8.954199999999999937e-01 6.329099999999999726e-01 6.237400000000000055e+00 1.842279999999999918e+00 3.186469999999999914e+00 6.162589999999999790e+00 3.639069999999999805e+00 6.312999999999999723e-01 7.752930000000000099e+00 4.560159999999999769e+00 3.184509999999999952e+00
6.300270000000000259e+00 7.248289999999999900e+00 5.032899999999999707e+00 4.700910000000000366e+00 6.374010000000000176e+00 2.510520000000000085e+00 7.675869999999999749e+00 2.766049999999999898e+00 4.709999999999999777e-03 3.146790000000000198e+00 3.621500000000000163e+00 2.518050000000000122e+00 3.054829999999999934e+00 4.959999999999999999e-03 1.319000000000000034e-02 7.761190000000000033e+00 6.375549999999999606e+00 2.521949999999999914e+00 4.600760000000000183e+00 2.743459999999999788e+00 1.221999999999999996e-02 6.201529999999999987e+00 3.630409999999999915e+00 2.520500000000000185e+00 1.537670000000000092e+00 9.084299999999999597e-01 6.154500000000000526e-01 3.142640000000000100e+00 1.779570000000000096e+00 3.144330000000000069e+00 3.093119999999999870e+00 3.652369999999999894e+00 6.230400000000000382e-01 4.706710000000000171e+00 4.532079999999999664e+00 3.151380000000000070e+00 4.609639999999999738e+00 9.082500000000000018e-01 6.306000000000000494e-01 6.209760000000000169e+00 1.769039999999999946e+00 3.147539999999999782e+00 6.153959999999999653e+00 3.655530000000000168e+00 6.395300000000000429e-01 7.761409999999999698e+00 4.523039999999999949e+00 3.139250000000000096e+00
9.345840000000000813e+00 1.661010000000000097e+00 4.916970000000000063e+00 7.788030000000000008e+00 8.366099999999999648e-01 2.466079999999999828e+00 4.688439999999999941e+00 4.331140000000000434e+00 4.919120000000000381e+00 9.363080000000000069e+00 3.515559999999999796e+00 2.469640000000000057e+00 6.233360000000000234e+00 1.660830000000000028e+00 4.919059999999999988e+00 7.832390000000000185e+00 6.182479999999999976e+00 2.477899999999999991e+00 7.805679999999999730e+00 4.332099999999999618e+00 4.919290000000000163e+00 6.259409999999999918e+00 3.512789999999999857e+00 2.463179999999999925e+00 1.576549999999999896e+00 8.632600000000000273e-01 6.099499999999999922e-01 3.129500000000000171e+00 1.702919999999999989e+00 3.091239999999999988e+00 3.131339999999999790e+00 3.558460000000000178e+00 6.160999999999999810e-01 4.688340000000000174e+00 4.375759999999999650e+00 3.058359999999999967e+00 4.690369999999999706e+00 8.696800000000000086e-01 6.121699999999999919e-01 6.224999999999999645e+00 1.714220000000000077e+00 3.073350000000000026e+00 6.254699999999999704e+00 3.534469999999999779e+00 6.101299999999999502e-01 7.823140000000000427e+00 4.379520000000000302e+00 3.066009999999999902e+00
9.504279999999999617e+00 5.279740000000000322e+00 5.760000000000000363e-03 1.552219999999999933e+00 8.376200000000000312e-01 2.524469999999999992e+00 4.736239999999999561e+00 4.314479999999999649e+00 5.051179999999999559e+00 3.182420000000000027e+00 3.473230000000000040e+00 2.528389999999999915e+00 3.126889999999999947e+00 8.309999999999999679e-03 6.060000000000000282e-03 7.935369999999999813e+00 6.117539999999999978e+00 2.532729999999999926e+00 7.875670000000000393e+00 4.307349999999999568e+00 5.061819999999999986e+00 6.293720000000000425e+00 3.471620000000000150e+00 2.527789999999999981e+00 1.580880000000000063e+00 8.637000000000000233e-01 6.419099999999999806e-01 3.131819999999999826e+00 1.703359999999999985e+00 3.169080000000000119e+00 3.216670000000000140e+00 3.523070000000000146e+00 6.258099999999999774e-01 4.766460000000000363e+00 4.342329999999999579e+00 3.171800000000000175e+00 4.695140000000000313e+00 8.705699999999999550e-01 6.326800000000000201e-01 6.265719999999999956e+00 1.693340000000000067e+00 3.157049999999999912e+00 6.344710000000000072e+00 3.516659999999999897e+00 6.436500000000000554e-01 7.890380000000000393e+00 4.360369999999999635e+00 3.169449999999999878e+00
6.363360000000000127e+00 1.809999999999999977e-03 8.300000000000000086e-04 4.703430000000000000e+00 6.237770000000000259e+00 2.545700000000000074e+00 1.589939999999999909e+00 2.657869999999999955e+00 5.199999999999999544e-04 3.118090000000000028e+00 3.581840000000000135e+00 2.547180000000000000e+00 6.360409999999999897e+00 5.314960000000000129e+00 1.940000000000000101e-03 4.713420000000000165e+00 9.254299999999999748e-01 2.534289999999999932e+00 7.820540000000000269e+00 4.504089999999999705e+00 5.091899999999999871e+00 6.297880000000000145e+00 3.562840000000000007e+00 2.552799999999999958e+00 1.568529999999999980e+00 8.902200000000000113e-01 6.347000000000000419e-01 3.109150000000000080e+00 1.829870000000000108e+00 3.172000000000000153e+00 3.156740000000000101e+00 3.552249999999999908e+00 6.300700000000000189e-01 4.692549999999999777e+00 4.485089999999999577e+00 3.185670000000000002e+00 4.746830000000000105e+00 8.875499999999999501e-01 6.445100000000000273e-01 6.276919999999999611e+00 1.823919999999999986e+00 3.176899999999999835e+00 6.336020000000000429e+00 3.566800000000000193e+00 6.468199999999999505e-01 7.867919999999999803e+00 4.487930000000000419e+00 3.180610000000000159e+00
9.194689999999999586e+00 5.337749999999999773e+00 4.000000000000000327e-05 7.658859999999999779e+00 8.346900000000000430e-01 2.523719999999999963e+00 1.545299999999999896e+00 2.669869999999999965e+00 1.789999999999999925e-03 9.212089999999999890e+00 3.496340000000000003e+00 2.523909999999999876e+00 9.251160000000000494e+00 6.988739999999999952e+00 5.023329999999999629e+00 7.702449999999999797e+00 6.167180000000000106e+00 2.512610000000000010e+00 7.723519999999999719e+00 4.332460000000000200e+00 5.029609999999999914e+00 6.150319999999999787e+00 3.489609999999999879e+00 2.516529999999999934e+00 1.537910000000000110e+00 8.742699999999999916e-01 6.275699999999999612e-01 3.103509999999999991e+00 1.719109999999999916e+00 3.151199999999999779e+00 3.092659999999999965e+00 3.547540000000000138e+00 6.255300000000000304e-01 4.638480000000000381e+00 4.388040000000000163e+00 3.146609999999999907e+00 4.588149999999999729e+00 8.754899999999999904e-01 6.302900000000000169e-01 6.153979999999999784e+00 1.712830000000000075e+00 3.132779999999999898e+00 6.139619999999999855e+00 3.548869999999999969e+00 6.335600000000000120e-01 7.694939999999999891e+00 4.376999999999999780e+00 3.145770000000000177e+00
6.316209999999999880e+00 9.709999999999999881e-03 1.315999999999999982e-02 7.880419999999999980e+00 9.029300000000000104e-01 2.512179999999999858e+00 1.535970000000000057e+00 2.685919999999999863e+00 3.160000000000000048e-03 9.400479999999999947e+00 3.589049999999999851e+00 2.528169999999999806e+00 6.214979999999999727e+00 5.376179999999999737e+00 4.170000000000000095e-03 4.718910000000000160e+00 9.009300000000000086e-01 2.509739999999999860e+00 4.686630000000000074e+00 2.685900000000000176e+00 1.114000000000000060e-02 6.240459999999999674e+00 3.604859999999999953e+00 2.506479999999999819e+00 1.549269999999999925e+00 9.024799999999999489e-01 6.383900000000000130e-01 3.115470000000000184e+00 1.797919999999999963e+00 3.138450000000000184e+00 3.099889999999999812e+00 3.583410000000000206e+00 6.358899999999999553e-01 4.645620000000000083e+00 4.487639999999999851e+00 3.136480000000000157e+00 4.727899999999999991e+00 9.018399999999999750e-01 6.304600000000000204e-01 6.272870000000000168e+00 1.782790000000000097e+00 3.140950000000000131e+00 6.249329999999999607e+00 3.586230000000000029e+00 6.261999999999999789e-01 7.802970000000000184e+00 4.493039999999999701e+00 3.153220000000000134e+00
1.199914000000000058e+01 7.253759999999999764e+00 5.081610000000000404e+00 1.048188000000000031e+01 6.291249999999999787e+00 2.533970000000000056e+00 7.525680000000000369e+00 2.668979999999999908e+00 1.030000000000000100e-03 9.033049999999999358e+00 3.629500000000000171e+00 2.546809999999999796e+00 8.959070000000000533e+00 7.247419999999999973e+00 5.077480000000000437e+00 4.550340000000000273e+00 9.613500000000000378e-01 2.542429999999999968e+00 7.514199999999999768e+00 4.594640000000000057e+00 5.085130000000000372e+00 5.997670000000000279e+00 3.624060000000000059e+00 2.538330000000000197e+00 1.502000000000000002e+00 9.036600000000000188e-01 6.297800000000000065e-01 3.013360000000000039e+00 1.867399999999999949e+00 3.178780000000000161e+00 2.952329999999999899e+00 3.573560000000000070e+00 6.321799999999999642e-01 4.466700000000000337e+00 4.535519999999999996e+00 3.179600000000000204e+00 4.538599999999999746e+00 9.084200000000000053e-01 6.378099999999999881e-01 6.047699999999999854e+00 1.867310000000000025e+00 3.179850000000000065e+00 5.983640000000000292e+00 3.567930000000000046e+00 6.382700000000000040e-01 7.514719999999999622e+00 4.528059999999999974e+00 3.173820000000000086e+00
2.991629999999999789e+00 1.835679999999999978e+00 5.097070000000000434e+00 4.580339999999999634e+00 6.182319999999999816e+00 2.542670000000000208e+00 4.539880000000000138e+00 4.449300000000000033e+00 5.098270000000000302e+00 9.304019999999999513e+00 3.555750000000000188e+00 2.537310000000000176e+00 3.126160000000000050e+00 3.409999999999999837e-03 7.409999999999999920e-03 7.713149999999999729e+00 6.182570000000000121e+00 2.556179999999999897e+00 7.669769999999999754e+00 4.455940000000000012e+00 5.100679999999999659e+00 6.166419999999999568e+00 3.550219999999999931e+00 2.547940000000000094e+00 1.540259999999999962e+00 8.900700000000000278e-01 6.416500000000000536e-01 3.036970000000000169e+00 1.798629999999999951e+00 3.190420000000000034e+00 3.091969999999999885e+00 3.514879999999999782e+00 6.370999999999999996e-01 4.582060000000000244e+00 4.435850000000000293e+00 3.187040000000000095e+00 4.680880000000000152e+00 8.923200000000000021e-01 6.353499999999999703e-01 6.171059999999999768e+00 1.797719999999999985e+00 3.191380000000000106e+00 6.223080000000000389e+00 3.530569999999999986e+00 6.417300000000000226e-01 7.712299999999999933e+00 4.439090000000000202e+00 3.189970000000000194e+00
