-1.163992143899999974e+02
-1.160236207300000046e+02
-1.156845610200000039e+02
-1.160334893400000027e+02
-1.159800956299999939e+02
-1.161094712400000049e+02
-1.161013082900000057e+02
-1.159867377900000065e+02
-1.160798061499999960e+02
-1.162403597100000070e+02
-1.161611588899999958e+02
-1.187529730199999989e+02
-1.186550657199999961e+02
-1.187239051800000027e+02
-1.184904046599999958e+02
-1.184338737399999957e+02
-1.186235554999999948e+02
-1.185391162699999938e+02
-1.185216089900000043e+02
-1.186487261300000000e+02
-1.185142585100000048e+02
-1.185585591300000061e+02
