2.999999897328529795e-06 -1.000000003474094026e-05 -1.999999980302509607e-06 1.099999994866426521e-05 -6.000000094115514823e-06 -6.689629948801765534e-14 9.000000000000000228e-06 1.999999913923325540e-06 -2.000000086076673856e-06 1.999999931552352915e-06 -2.000000044331125577e-06 -6.000000008038840030e-06 -2.999999940108308691e-06 1.000000052887081867e-06 6.000000021131331734e-06 -1.000000000000000082e-05 -2.999999900830834002e-06 3.000000099169165726e-06 -1.099999994866426521e-05 6.000000094115514823e-06 6.689629948801765534e-14 -1.999999897328529629e-06 1.000000002618498423e-05 1.999999971746553998e-06 -9.999999999999999547e-07 8.555955902420180533e-15 8.555955824791381255e-15 9.999999999999999547e-07 -8.555955902420180533e-15 -8.555955824791381255e-15 9.999999999999999547e-07 -8.555955902420180533e-15 -8.555955824791381255e-15 2.999999991444044466e-06 9.999999652590609372e-07 -2.000000030204403256e-06 0.000000000000000000e+00 0.000000000000000000e+00 0.000000000000000000e+00 0.000000000000000000e+00 0.000000000000000000e+00 0.000000000000000000e+00 -3.000000000000000076e-06 -1.999999965259060892e-06 2.000000034740938927e-06 0.000000000000000000e+00 0.000000000000000000e+00 0.000000000000000000e+00
-5.525200000000000250e-02 -2.689790000000000236e-01 1.411759999999999959e-01 1.864989999999999981e-01 -2.439999999999999949e-04 -1.557699999999999918e-01 3.506210000000000160e-01 1.295080000000000120e-01 3.224299999999999944e-01 1.934100000000000055e-02 -4.514100000000000057e-02 -4.120329999999999826e-01 -7.721100000000000185e-02 -3.690299999999999830e-02 3.037639999999999785e-01 -1.539899999999999880e-01 -1.423449999999999993e-01 -7.284400000000000597e-02 -4.076910000000000256e-01 2.212780000000000025e-01 1.191470000000000029e-01 5.867399999999999699e-02 1.298499999999999932e-01 -1.457380000000000064e-01 -1.635550000000000059e-01 3.926500000000000129e-02 1.464129999999999876e-01 -3.673099999999999976e-02 9.523299999999999821e-02 -8.174599999999999922e-02 5.326899999999999691e-02 -1.272419999999999940e-01 1.955290000000000084e-01 1.948539999999999994e-01 -1.017839999999999995e-01 -1.467370000000000063e-01 4.927000000000000129e-02 -5.095100000000000323e-02 3.573699999999999793e-02 7.770799999999999930e-02 7.748999999999999812e-03 -2.352900000000000130e-02 8.528399999999999870e-02 1.486109999999999931e-01 -4.872900000000000148e-02 -1.810910000000000020e-01 2.093999999999999941e-03 -1.770690000000000042e-01
1.976299999999999932e-02 6.579400000000000526e-02 3.597339999999999982e-01 1.194199999999999949e-02 -7.050499999999999823e-02 -3.875499999999999778e-02 -3.197500000000000342e-02 1.282570000000000099e-01 1.036159999999999998e-01 -1.836689999999999989e-01 2.247270000000000101e-01 -2.935749999999999749e-01 3.119560000000000111e-01 -1.591639999999999999e-01 5.384900000000000103e-02 -1.307250000000000079e-01 -2.256420000000000092e-01 -2.458390000000000020e-01 2.270099999999999896e-02 -1.412599999999999967e-02 1.272299999999999993e-02 2.148980000000000057e-01 3.813199999999999923e-02 9.070100000000000384e-02 1.922989999999999977e-01 1.053560000000000052e-01 -1.023699999999999957e-02 -6.667499999999999816e-02 2.172340000000000104e-01 -7.798099999999999477e-02 -1.734479999999999911e-01 -1.080229999999999940e-01 -1.783900000000000069e-02 1.530399999999999990e-02 -5.945899999999999797e-02 -3.020999999999999814e-03 -2.766609999999999903e-01 -1.137429999999999969e-01 -2.854300000000000170e-01 -3.789800000000000113e-02 8.942600000000000549e-02 9.634700000000000208e-02 1.276239999999999875e-01 1.017299999999999975e-02 2.204100000000000156e-02 -1.543600000000000007e-02 -1.284379999999999966e-01 2.336660000000000126e-01
9.460300000000000653e-02 6.013199999999999795e-02 2.986199999999999966e-02 -1.027890000000000054e-01 1.591000000000000053e-02 6.128700000000000120e-02 -1.092739999999999961e-01 -3.369199999999999973e-02 -4.272800000000000209e-02 1.162750000000000034e-01 2.937199999999999880e-02 1.583499999999999838e-02 -5.320799999999999835e-02 1.889700000000000060e-02 -1.684239999999999904e-01 1.107279999999999931e-01 2.178470000000000129e-01 1.101639999999999980e-01 5.791999999999999926e-02 1.084320000000000006e-01 -7.391200000000000547e-02 -2.189659999999999940e-01 -2.844610000000000194e-01 2.373210000000000042e-01 -2.147900000000000156e-02 -2.162350000000000105e-01 2.119979999999999920e-01 -8.697100000000000664e-02 1.346729999999999872e-01 -7.041999999999999649e-02 -2.398589999999999889e-01 -1.169729999999999936e-01 1.807650000000000090e-01 4.876599999999999685e-02 1.070539999999999964e-01 -1.195299999999999974e-01 1.635089999999999877e-01 5.561800000000000077e-02 -2.675029999999999908e-01 5.966500000000000276e-02 1.012799999999999985e-02 -7.988999999999999574e-03 3.772600000000000259e-02 1.244829999999999964e-01 1.746299999999999936e-02 1.433530000000000082e-01 -2.311860000000000026e-01 -1.141899999999999998e-01
1.739509999999999945e-01 6.058000000000000017e-03 -1.293539999999999968e-01 -2.071079999999999866e-01 -3.045800000000000174e-01 8.332499999999999629e-02 -2.044219999999999926e-01 -3.468999999999999861e-02 -2.094070000000000098e-01 1.694950000000000068e-01 2.688499999999999779e-01 2.787229999999999985e-01 -1.594399999999999984e-01 -1.555110000000000103e-01 -1.434469999999999912e-01 8.237200000000000077e-02 -1.317600000000000021e-02 2.631479999999999930e-01 1.645359999999999878e-01 8.418000000000000482e-02 -2.205280000000000018e-01 -3.553600000000000092e-01 8.321699999999999930e-02 -3.736799999999999844e-02 -8.036899999999999600e-02 -7.463500000000000689e-02 4.338100000000000289e-02 4.114999999999999734e-03 -9.990799999999999681e-02 3.700999999999999863e-03 6.179300000000000070e-02 1.396779999999999966e-01 1.938199999999999923e-01 1.733860000000000123e-01 1.171090000000000048e-01 -1.806429999999999980e-01 1.977480000000000071e-01 1.385619999999999907e-01 5.957199999999999995e-02 4.789600000000000107e-02 7.487199999999999411e-02 -8.847800000000000109e-02 -1.001129999999999937e-01 -1.016859999999999986e-01 8.034299999999999775e-02 3.151999999999999941e-02 -1.283400000000000096e-01 3.213999999999999843e-03
8.370999999999999969e-03 -2.516349999999999976e-01 1.519649999999999890e-01 4.412699999999999956e-02 -1.095789999999999959e-01 -2.395900000000000113e-02 -2.470400000000000026e-02 1.769660000000000122e-01 3.358099999999999974e-02 -3.926700000000000329e-02 1.629760000000000097e-01 -1.562209999999999988e-01 -1.482999999999999943e-02 -1.728999999999999981e-01 1.600409999999999888e-01 -6.859899999999999332e-02 -1.946769999999999889e-01 -9.896699999999999942e-02 -1.380499999999999956e-02 1.846619999999999928e-01 3.876899999999999791e-02 7.337499999999999578e-02 3.351649999999999907e-01 -1.988479999999999970e-01 -1.090850000000000014e-01 -3.493500000000000077e-02 -9.417999999999999289e-03 1.544079999999999897e-01 2.689000000000000071e-02 7.317800000000000693e-02 7.809800000000000075e-02 -1.189599999999999963e-01 -2.006819999999999993e-01 2.574900000000000105e-02 -1.351019999999999999e-01 8.099999999999999561e-04 7.835799999999999710e-02 7.797199999999999964e-02 1.110399999999999929e-02 -6.090600000000000180e-02 -6.505999999999999631e-03 -8.661199999999999455e-02 4.147499999999999798e-02 -1.341150000000000120e-01 7.163999999999999535e-02 -1.727660000000000029e-01 1.937790000000000068e-01 2.336179999999999923e-01
-5.345400000000000151e-02 -3.037899999999999975e-02 1.267129999999999923e-01 -1.681300000000000155e-02 -1.440339999999999954e-01 9.215600000000000180e-02 -9.690999999999999961e-03 1.902480000000000004e-01 -7.348200000000000565e-02 -1.452249999999999930e-01 1.274490000000000067e-01 4.945499999999999896e-02 2.719989999999999908e-01 -2.060740000000000072e-01 5.397799999999999820e-02 -2.124149999999999927e-01 -3.198590000000000044e-01 -1.807900000000000132e-02 8.637599999999999445e-02 7.361099999999999588e-02 -1.824419999999999931e-01 2.971170000000000200e-01 3.542759999999999798e-01 1.417599999999999937e-02 -1.048919999999999991e-01 5.092800000000000105e-02 2.899370000000000003e-01 -3.009300000000000169e-02 2.609500000000000014e-02 -5.481799999999999867e-02 -9.890400000000000580e-02 1.553759999999999863e-01 -6.696999999999999828e-03 -4.318500000000000116e-02 -1.069019999999999970e-01 -2.748970000000000025e-01 7.074600000000000333e-02 -4.907000000000000250e-02 2.145650000000000057e-01 -2.006900000000000003e-02 -1.748790000000000067e-01 -2.903189999999999937e-01 -3.035799999999999957e-02 1.135399999999999951e-02 6.051100000000000229e-02 3.886099999999999971e-02 4.186100000000000237e-02 -7.560000000000000530e-04
-1.519639999999999880e-01 3.635900000000000243e-02 2.117229999999999945e-01 -1.871289999999999898e-01 2.340440000000000020e-01 -7.352999999999999814e-02 -1.692879999999999940e-01 2.682199999999999862e-02 2.303719999999999934e-01 -1.266410000000000036e-01 -6.340000000000000149e-04 -3.599800000000000222e-02 7.797400000000000164e-02 -1.635550000000000059e-01 3.996500000000000052e-02 1.852050000000000085e-01 -5.215399999999999897e-02 -1.093390000000000056e-01 2.674079999999999790e-01 -5.070000000000000201e-02 4.451200000000000295e-02 1.875670000000000115e-01 -1.306360000000000021e-01 -1.703189999999999982e-01 -6.859700000000000519e-02 9.400600000000000622e-02 -8.856100000000000083e-02 -8.580500000000000627e-02 3.012899999999999953e-02 4.760000000000000234e-04 -7.400400000000000034e-02 2.235900000000000040e-02 -1.896000000000000116e-02 -1.661100000000000076e-01 1.173369999999999969e-01 1.018300000000000038e-01 7.253400000000000125e-02 -3.930100000000000260e-02 -3.974699999999999761e-02 9.250600000000000489e-02 -1.650400000000000131e-02 -4.461600000000000288e-02 1.007490000000000052e-01 -5.210599999999999954e-02 -6.864199999999999469e-02 4.559300000000000158e-02 -5.546800000000000341e-02 2.083399999999999835e-02
-8.320600000000000218e-02 -1.271529999999999883e-01 -4.684499999999999775e-02 8.094800000000000606e-02 -1.165220000000000006e-01 1.282240000000000046e-01 2.936899999999999927e-02 1.866049999999999931e-01 -3.900399999999999701e-02 -3.502999999999999864e-02 4.120100000000000151e-02 6.077699999999999769e-02 2.118200000000000083e-01 -1.994589999999999974e-01 1.048540000000000028e-01 -2.559179999999999788e-01 -2.111480000000000024e-01 1.016439999999999982e-01 1.384999999999999946e-03 4.659499999999999753e-02 1.174200000000000070e-02 1.918999999999999916e-03 3.541179999999999883e-01 8.392099999999999560e-02 3.932599999999999985e-02 9.996399999999999730e-02 -1.361020000000000008e-01 -2.930539999999999812e-01 2.852120000000000211e-01 -4.158000000000000237e-03 -7.825899999999999523e-02 -1.014980000000000049e-01 -3.114000000000000015e-03 1.348789999999999989e-01 -1.085219999999999935e-01 -9.520199999999999496e-02 4.104000000000000009e-02 1.005799999999999923e-02 -1.149400000000000005e-01 7.797099999999999864e-02 4.492399999999999866e-02 -3.574700000000000100e-02 -8.288000000000000228e-03 4.837000000000000154e-03 9.897599999999999454e-02 1.350969999999999949e-01 -2.092110000000000081e-01 -1.150260000000000032e-01
4.535399999999999848e-02 2.692100000000000048e-02 -8.097300000000000331e-02 -2.040849999999999886e-01 -1.699319999999999997e-01 1.884919999999999929e-01 -9.414899999999999658e-02 -1.006699999999999956e-01 -3.032549999999999968e-01 1.723510000000000042e-01 1.478939999999999977e-01 7.236299999999999677e-02 -2.199760000000000049e-01 -4.161900000000000321e-02 -2.990220000000000100e-01 1.751709999999999934e-01 -2.740899999999999934e-02 2.467489999999999961e-01 1.038170000000000065e-01 1.092100000000000015e-01 -1.200869999999999993e-01 -1.826869999999999883e-01 2.888500000000000095e-02 1.221109999999999973e-01 -1.446330000000000116e-01 4.181399999999999700e-02 1.327250000000000096e-01 2.039640000000000064e-01 -6.057099999999999984e-02 -1.456490000000000007e-01 1.933800000000000102e-02 -2.176420000000000021e-01 -7.113999999999999491e-02 3.202369999999999939e-01 2.191200000000000092e-02 4.696299999999999780e-02 -6.449999999999999570e-04 1.458280000000000132e-01 1.037000000000000005e-01 1.045390000000000069e-01 -1.220399999999999957e-02 2.271799999999999861e-02 -6.784800000000000553e-02 -1.001370000000000038e-01 1.789570000000000050e-01 -2.307480000000000087e-01 2.077170000000000127e-01 -9.465200000000000002e-02
-4.591900000000000148e-02 -4.654799999999999910e-02 1.522899999999999948e-02 -2.923399999999999957e-02 -1.032890000000000058e-01 8.322000000000000230e-02 -1.170849999999999946e-01 8.727000000000000035e-02 -1.743830000000000102e-01 -2.728200000000000069e-02 1.542979999999999907e-01 9.030799999999999939e-02 3.738600000000000256e-02 -1.459840000000000027e-01 -1.057669999999999999e-01 5.212900000000000172e-02 -1.596319999999999961e-01 1.650969999999999938e-01 5.690499999999999725e-02 5.812400000000000205e-02 -1.228709999999999941e-01 1.010000000000000047e-03 1.129890000000000061e-01 1.380599999999999883e-01 -6.670800000000000340e-02 1.450990000000000058e-01 -1.846559999999999868e-01 8.960600000000000509e-02 -1.023639999999999967e-01 1.526980000000000004e-01 1.741900000000000115e-01 -1.913499999999999923e-02 -8.632499999999999896e-02 1.343199999999999950e-02 -1.166279999999999956e-01 4.761599999999999860e-02 -5.201900000000000274e-02 2.122419999999999862e-01 -2.057799999999999907e-01 -9.563900000000000179e-02 6.526999999999999816e-03 -5.883800000000000141e-02 -5.016199999999999826e-02 -1.020479999999999998e-01 1.742199999999999999e-02 5.938899999999999735e-02 1.907899999999999874e-02 2.289720000000000089e-01
-2.000000015342549511e-06 -9.999998810578799313e-07 1.000000088257009975e-06 -9.999998656315329368e-07 1.332257840671981310e-13 4.000000033592111862e-06 3.000000030685100973e-06 1.999999811050429977e-06 -2.000000142921904520e-06 4.000000015342546456e-06 9.999997831885394902e-07 -1.000000155441240414e-06 3.999999948158313900e-06 9.999997410429826550e-07 -3.000000155441239265e-06 3.000000113211886519e-06 2.999999832123207609e-06 -1.000000163994685418e-06 -9.999999817504349723e-07 -9.999999089197715226e-07 2.000000054664893652e-06 -2.000000030685102924e-06 -1.999999859985100092e-06 2.000000109329789089e-06 -1.000000015342551462e-06 -9.999999299925500461e-07 1.000000054664894544e-06 -1.000000033592114539e-06 2.786189170063663373e-14 -9.999999664078838885e-07 -4.893466946606968645e-14 -9.999999999999986842e-07 2.107278011713139567e-14 -1.000000033592114539e-06 2.786189170063663373e-14 -9.999999664078838885e-07 -1.000000048934667740e-06 -9.999999510653285695e-07 5.466489541908544802e-14 -1.000000048934667740e-06 -9.999999510653285695e-07 5.466489541908544802e-14 -2.000000033592112799e-06 7.679656187458556691e-14 -9.999999328157686692e-07 -1.000000048934667740e-06 -9.999999510653285695e-07 5.466489541908544802e-14
-2.759469999999999978e-01 1.701959999999999862e-01 -5.017999999999999891e-03 -1.511369999999999936e-01 -9.112699999999999967e-02 -9.796199999999999353e-02 -1.792600000000000027e-01 -9.789499999999999591e-02 -1.424599999999999998e-02 1.759969999999999868e-01 1.581049999999999955e-01 -9.918399999999999439e-02 -4.702800000000000036e-02 3.535449999999999982e-01 4.538400000000000073e-02 -8.499199999999999811e-02 7.117800000000000515e-02 1.260030000000000039e-01 -8.393499999999999572e-02 1.454040000000000055e-01 2.781099999999999892e-02 -4.748800000000000243e-02 5.261400000000000104e-02 -1.540469999999999895e-01 1.943900000000000072e-01 1.778089999999999948e-01 4.810799999999999799e-02 4.274599999999999927e-02 -7.531999999999999806e-02 4.504199999999999871e-02 5.862300000000000150e-02 -5.128300000000000219e-02 2.322919999999999985e-01 -5.152099999999999735e-02 -9.594000000000000097e-03 2.657199999999999840e-02 1.511959999999999971e-01 -2.418599999999999917e-01 -2.181019999999999903e-01 1.650339999999999863e-01 -7.509799999999999809e-02 -4.290999999999999676e-03 1.853440000000000087e-01 -2.963180000000000258e-01 2.002269999999999883e-01 -5.202199999999999880e-02 -1.903569999999999984e-01 -1.585880000000000067e-01
6.226500000000000090e-02 -3.137759999999999994e-01 -9.371100000000000263e-02 -1.866009999999999891e-01 -1.342230000000000090e-01 1.989680000000000060e-01 2.018490000000000006e-01 -2.211299999999999932e-01 -2.054340000000000055e-01 2.121959999999999957e-01 -3.348650000000000237e-01 -1.334170000000000078e-01 -1.306789999999999896e-01 1.944900000000000101e-02 -2.482739999999999947e-01 -1.083879999999999982e-01 -4.455400000000000332e-02 2.074199999999999933e-01 -1.178919999999999968e-01 -1.345870000000000122e-01 -4.355999999999999629e-03 5.937900000000000122e-02 3.889299999999999702e-02 1.349480000000000124e-01 1.754020000000000024e-01 3.582409999999999761e-01 2.852499999999999827e-02 3.227800000000000114e-02 2.625870000000000148e-01 -1.385039999999999882e-01 -4.931499999999999773e-02 8.382999999999999827e-03 8.077600000000000058e-02 -8.737300000000000622e-02 1.650580000000000103e-01 9.100099999999999856e-02 -1.096059999999999951e-01 3.754709999999999992e-01 2.682500000000000162e-02 1.612449999999999994e-01 -1.203020000000000062e-01 -5.280699999999999977e-02 -6.746000000000000260e-03 -1.836000000000000132e-02 1.103640000000000038e-01 -1.080139999999999989e-01 9.371400000000000563e-02 -2.324999999999999810e-03
-7.380899999999999961e-02 -2.570500000000000007e-01 2.170899999999999913e-02 1.907700000000000021e-02 -2.200610000000000066e-01 1.318850000000000022e-01 -1.705089999999999939e-01 -4.759180000000000077e-01 -3.552000000000000296e-02 2.614400000000000057e-01 -2.578610000000000069e-01 9.924299999999999788e-02 2.465529999999999944e-01 -4.524900000000000033e-01 -2.195729999999999904e-01 1.227020000000000055e-01 -3.078670000000000018e-01 6.927600000000000424e-02 3.942570000000000241e-01 -2.322649999999999992e-01 -2.421989999999999976e-01 3.614169999999999883e-01 -5.447389999999999732e-01 1.064890000000000003e-01 2.153700000000000059e-02 3.432049999999999823e-01 1.609500000000000097e-01 -1.931400000000000131e-02 2.067410000000000081e-01 -9.866800000000000570e-02 2.371999999999999977e-03 4.869660000000000100e-01 1.125040000000000068e-01 -4.182569999999999899e-01 3.428160000000000096e-01 -1.175339999999999996e-01 -1.631799999999999917e-01 1.605789999999999995e-01 -2.102400000000000102e-02 -1.494119999999999893e-01 4.093910000000000049e-01 4.591300000000000242e-02 -1.815859999999999974e-01 3.736400000000000277e-01 -2.117439999999999878e-01 -2.532880000000000131e-01 4.249160000000000159e-01 1.982929999999999970e-01
2.162789999999999990e-01 -1.615149999999999919e-01 7.107480000000000464e-01 1.753919999999999924e-01 -1.509649999999999881e-01 2.102650000000000075e-01 -1.232399999999999989e-02 -1.627830000000000110e-01 2.596379999999999799e-01 3.093500000000000139e-01 -3.895739999999999759e-01 6.684800000000000464e-02 7.354299999999999726e-02 -3.172980000000000245e-01 4.818779999999999730e-01 -1.946000000000000160e-02 -2.519300000000000012e-02 -9.222400000000000042e-02 -1.110880000000000062e-01 -9.769700000000000606e-02 4.943029999999999924e-01 -2.066469999999999974e-01 -1.366199999999999914e-01 1.315620000000000123e-01 -2.483499999999999874e-01 3.349920000000000120e-01 -1.744819999999999982e-01 -3.603859999999999841e-01 1.658389999999999864e-01 -7.825819999999999999e-01 9.858599999999999308e-02 -8.447999999999999954e-02 -3.946149999999999936e-01 1.188479999999999953e-01 2.738639999999999963e-01 -2.050499999999999892e-02 -1.987649999999999972e-01 2.201210000000000111e-01 -1.527209999999999956e-01 2.909309999999999952e-01 1.070600000000000024e-02 -3.111180000000000057e-01 1.475660000000000027e-01 3.578129999999999922e-01 -3.455480000000000218e-01 -2.734730000000000216e-01 1.627889999999999893e-01 -8.144800000000000650e-02
1.818309999999999926e-01 2.400120000000000031e-01 -1.833829999999999905e-01 3.158779999999999921e-01 -5.974200000000000343e-02 1.429219999999999935e-01 2.804289999999999838e-01 1.147100000000000029e-02 3.005439999999999778e-01 1.139130000000000004e-01 1.519570000000000087e-01 -4.449700000000000183e-02 1.050490000000000035e-01 -9.277299999999999436e-02 -2.419050000000000089e-01 1.466629999999999878e-01 1.659029999999999949e-01 -2.789700000000000166e-02 -3.293399999999999800e-02 2.739510000000000001e-01 -3.775999999999999843e-03 5.388680000000000136e-01 1.273509999999999920e-01 1.416830000000000034e-01 -1.910499999999999976e-01 1.205940000000000067e-01 -2.244339999999999946e-01 -1.506949999999999956e-01 -2.691699999999999995e-02 1.116400000000000031e-02 -1.771749999999999992e-01 -4.338850000000000207e-01 1.682089999999999974e-01 -2.966090000000000115e-01 -1.616199999999999928e-02 -1.690359999999999918e-01 4.244400000000000256e-02 -3.258599999999999691e-02 7.629400000000000071e-02 -3.778329999999999744e-01 1.303090000000000082e-01 2.630600000000000160e-01 -2.596249999999999947e-01 -1.280100000000000127e-01 -1.676239999999999952e-01 -2.391540000000000055e-01 -4.314729999999999954e-01 -4.132500000000000062e-02
-1.423550000000000093e-01 2.370190000000000075e-01 -1.669499999999999873e-01 7.347099999999999465e-02 4.119780000000000109e-01 -3.525600000000000261e-02 -1.887020000000000086e-01 3.378390000000000004e-01 1.102900000000000061e-02 -1.247400000000000037e-01 4.865340000000000220e-01 -1.034999999999999948e-01 -1.775990000000000069e-01 3.628759999999999764e-01 -4.386299999999999921e-02 -2.681700000000000195e-01 2.900349999999999873e-01 2.105579999999999952e-01 -1.415299999999999891e-01 3.114600000000000146e-01 -2.251900000000000082e-02 -8.501400000000000623e-02 8.875290000000000123e-01 -1.087479999999999974e-01 1.274619999999999920e-01 -1.772970000000000101e-01 3.927100000000000035e-02 -8.086200000000000332e-02 -5.165239999999999831e-01 1.920640000000000125e-01 1.914569999999999883e-01 -2.751430000000000264e-01 1.197280000000000011e-01 2.988800000000000137e-02 -4.783990000000000187e-01 1.538400000000000011e-02 2.524560000000000137e-01 -1.131080000000000002e-01 -2.978729999999999989e-01 1.979299999999999948e-01 -5.967599999999999572e-01 2.047460000000000113e-01 1.891569999999999918e-01 -6.281050000000000244e-01 -1.010830000000000062e-01 1.471510000000000040e-01 -5.399319999999999675e-01 8.701299999999999313e-02
5.525200000000000250e-02 -1.523490000000000122e-01 2.890399999999999914e-02 4.645449999999999857e-01 -1.845350000000000046e-01 -2.847600000000000131e-01 2.118210000000000093e-01 -1.775390000000000024e-01 -2.397399999999999878e-02 9.221999999999999642e-02 -1.445100000000000030e-02 -2.632689999999999753e-01 3.494639999999999969e-01 5.173799999999999927e-02 7.397700000000000109e-02 -2.854900000000000146e-02 -2.007770000000000110e-01 -8.478900000000000325e-02 9.332200000000000217e-02 -3.015320000000000222e-01 -3.640000000000000180e-02 1.980510000000000048e-01 2.095259999999999900e-01 -4.080199999999999799e-02 -1.296779999999999877e-01 2.631809999999999983e-01 1.484350000000000114e-01 -1.994350000000000012e-01 -7.211800000000000155e-02 -5.660400000000000154e-02 -2.910519999999999774e-01 1.492719999999999880e-01 2.145630000000000037e-01 -3.419300000000000117e-02 6.812999999999999612e-03 8.241900000000000615e-02 -1.673149999999999915e-01 1.415039999999999909e-01 -5.069300000000000195e-02 -2.944559999999999955e-01 6.585799999999999987e-02 2.920690000000000230e-01 -1.683939999999999881e-01 6.998100000000000154e-02 -1.261499999999999948e-02 -1.516029999999999878e-01 1.454239999999999977e-01 1.353799999999999969e-02
4.680000000000000132e-02 -1.618140000000000134e-01 -2.861899999999999861e-02 -1.723860000000000114e-01 8.152600000000000124e-02 3.183259999999999978e-01 -1.751630000000000131e-01 2.413180000000000047e-01 1.437859999999999971e-01 -3.500000000000000333e-02 1.665840000000000098e-01 -4.163000000000000034e-03 -1.865989999999999871e-01 1.724729999999999874e-01 8.061500000000000610e-02 -1.938020000000000020e-01 9.692800000000000027e-02 3.552159999999999762e-01 -7.810799999999999688e-02 2.741999999999999993e-01 9.396200000000000385e-02 -4.245999999999999774e-02 -2.468239999999999879e-01 3.412899999999999823e-01 3.199609999999999954e-01 -1.876780000000000115e-01 -3.423780000000000157e-01 9.435200000000000531e-02 -1.320500000000000007e-01 1.570200000000000068e-02 -1.202440000000000037e-01 3.560800000000000076e-02 -1.255999999999999894e-01 6.714499999999999635e-02 -8.148500000000000187e-02 -4.091700000000000198e-02 -7.549100000000000255e-02 -2.606049999999999756e-01 -1.745869999999999922e-01 2.231299999999999950e-01 2.969229999999999925e-01 -1.632460000000000022e-01 2.407970000000000110e-01 -1.008850000000000025e-01 -1.278789999999999927e-01 8.706800000000000650e-02 -1.942170000000000007e-01 -3.415090000000000070e-01
-1.682099999999999984e-01 9.297600000000000309e-02 -1.610939999999999872e-01 1.047830000000000011e-01 1.097510000000000013e-01 -1.010830000000000062e-01 -1.938410000000000133e-01 -4.635500000000000037e-02 -2.604110000000000036e-01 2.304000000000000058e-03 -9.707799999999999763e-02 -3.232840000000000158e-01 1.028180000000000066e-01 2.173849999999999949e-01 2.575699999999999865e-02 -2.972139999999999782e-01 -6.010299999999999671e-02 -2.541340000000000265e-01 -3.017469999999999875e-01 -2.228430000000000133e-01 -2.419910000000000116e-01 -5.340799999999999714e-02 1.723409999999999942e-01 -6.512600000000000333e-02 7.387299999999999423e-02 -2.083300000000000082e-02 2.066500000000000004e-01 5.892499999999999821e-02 -1.338979999999999893e-01 1.053869999999999946e-01 2.150320000000000009e-01 -9.070000000000000371e-04 2.657390000000000030e-01 1.715540000000000120e-01 -4.923899999999999805e-02 1.830430000000000113e-01 -1.119200000000000056e-02 -1.076379999999999976e-01 7.844099999999999684e-02 1.560130000000000128e-01 -6.294600000000000195e-02 1.339110000000000023e-01 3.124390000000000223e-01 8.763100000000000056e-02 1.406799999999999995e-01 -1.721300000000000052e-01 1.217560000000000031e-01 2.675150000000000028e-01
-4.312130000000000130e-01 -7.778400000000000591e-02 -7.261199999999999599e-02 -1.086950000000000000e-01 4.458790000000000253e-01 1.781959999999999933e-01 -3.545570000000000110e-01 6.690850000000000408e-01 -1.208909999999999985e-01 -1.361920000000000075e-01 1.290610000000000090e-01 6.930100000000000149e-02 9.634800000000000308e-02 2.269019999999999926e-01 -3.059029999999999805e-01 -1.596500000000000002e-02 4.586609999999999854e-01 -2.347740000000000105e-01 -1.708929999999999894e-01 4.307880000000000043e-01 -1.053309999999999941e-01 -6.026700000000000113e-02 1.838519999999999877e-01 -7.519699999999999995e-02 2.160169999999999868e-01 -3.697929999999999828e-01 7.968400000000000483e-02 4.693399999999999656e-02 -1.977559999999999873e-01 2.337200000000000041e-02 1.805309999999999970e-01 6.264999999999999736e-03 -2.678200000000000025e-02 7.463999999999999801e-02 -3.206019999999999981e-01 1.168389999999999984e-01 1.308159999999999878e-01 -4.636620000000000186e-01 2.223239999999999938e-01 7.653100000000000180e-02 -2.797830000000000039e-01 1.382520000000000138e-01 2.570760000000000267e-01 -4.316559999999999842e-01 2.315800000000000150e-02 1.988870000000000082e-01 -4.094550000000000134e-01 9.036299999999999888e-02
