-2.673632855663809482e-01 1.658010349557782211e-06 1.658010277771083269e-06 1.658010349557782211e-06 -2.673624565612986448e-01 -5.845821879670193325e-14 1.658010277771083057e-06 -5.845821879648338723e-14 -2.673690886026384161e-01
1.267222539627921307e+01 -2.706876381278166210e+00 -4.197158210951544177e+00 -2.706876381278166210e+00 -8.995759589955939717e+00 2.284867143927887589e+00 -4.197158210951544177e+00 2.284867143927887589e+00 -5.483658334476810836e+00
1.618441976783871183e+01 -5.353391272369385945e+00 -1.873978887246362524e-01 -5.353391272369385945e+00 -1.470744308891884566e+00 3.805510793865563013e+00 -1.873978887246362524e-01 3.805510793865563013e+00 1.694869314271677041e+01
1.100392281986123422e+01 3.664489898221429787e+00 -2.850536513239256831e+00 3.664489898221429787e+00 3.254650209547573780e+00 -1.403319822663618099e+00 -2.850536513239256831e+00 -1.403319822663618099e+00 8.570283800373548644e+00
1.594568525356546651e+01 -8.122908898039381265e-02 1.881471166672694928e-01 -8.122908898039381265e-02 3.681709170893807226e+00 4.095167311274318322e+00 1.881471166672694928e-01 4.095167311274318322e+00 -8.391799545921312387e+00
-5.697896782716759034e+00 -4.633744972316864441e+00 -2.079134855090124745e+00 -4.633744972316864441e+00 5.805359785043116005e+00 2.762964371840241906e+00 -2.079134855090124745e+00 2.762964371840241906e+00 7.958066083213569009e+00
7.621111568269511416e+00 -8.319814588636773589e-01 -8.362188256088509686e-01 -8.319814588636773589e-01 -3.703413414053736141e-01 3.790276612253047794e+00 -8.362188256088509686e-01 3.790276612253047794e+00 1.138187325729714416e+01
9.638644740172816583e+00 4.261065989859334380e+00 3.400256490700353851e+00 4.261065989859334380e+00 1.190039249964469192e+01 3.359447017158692983e+00 3.400256490700353851e+00 3.359447017158692983e+00 -4.646825248135611375e+00
8.143810648691642839e+00 -4.878794950863324154e+00 1.661595749017122481e+00 -4.878794950863324154e+00 9.625213956196267517e+00 -9.494473347370400163e-01 1.661595749017122481e+00 -9.494473347370400163e-01 -5.603508093568323467e+00
-2.356961872212333109e-01 3.522465414848256593e+00 3.661886414782428822e+00 3.522465414848256593e+00 -8.998005866426620480e-01 -3.653533377536376747e+00 3.661886414782428822e+00 -3.653533377536376747e+00 4.641971994584341843e+00
-1.153422501934316280e+01 -2.990494395190075316e-01 8.900670965926141820e-01 -2.990494395190075316e-01 -1.166674248013136683e+01 5.631331141112388972e-01 8.900670965926141820e-01 5.631331141112388972e-01 6.683579472856715498e+00
-3.934610321068783834e-01 1.676379865799809875e-05 1.257284829419034036e-05 1.676379865799809875e-05 -3.934788436472340667e-01 6.286423245888190283e-06 1.257284829419034036e-05 6.286423245888190283e-06 -3.934893210213761261e-01
-1.141741780679749674e+01 3.596190838691297742e+00 7.788645480416542810e-01 3.596190838691297742e+00 -6.056453648754489549e+00 -3.835739107125636371e-01 7.788645480416542810e-01 -3.835739107125636371e-01 -7.974045063675785805e+00
-3.349515852226417234e+00 8.947721200647911211e-01 -1.329978513497197534e+00 8.947721200647911211e-01 -8.256072927048965227e+00 7.000824184995034782e-01 -1.329978513497197534e+00 7.000824184995034782e-01 -5.505117896550148160e+00
4.436867158312497672e+00 -3.013700185256412478e+00 -3.612244892198148261e+00 -3.013700185256412478e+00 -1.170502502276092827e+01 5.086008965648869840e+00 -3.612244892198148261e+00 5.086008965648869840e+00 7.671279201571374884e-01
6.964350164153723100e-01 -9.677000543836168367e-01 -3.783466097738757278e-02 -9.677000543836168367e-01 -1.226059729715915259e+00 2.498184534156767000e+00 -3.783466097738757278e-02 2.498184534156767000e+00 1.353900804033800398e+01
-1.790275012529450649e+00 -4.052563204999728441e+00 -5.675553121211041052e-01 -4.052563204999728441e+00 4.091435283837590475e+00 3.412769177970244039e-01 -5.675553121211041052e-01 3.412769177970244039e-01 -8.069851916226814526e-01
-1.306544128663361626e+01 1.943574426332342009e+00 3.063219983520739653e+00 1.943574426332342009e+00 2.221178770934038038e+00 -4.638514393360194887e+00 3.063219983520739653e+00 -4.638514393360194887e+00 -4.810370947417598408e+00
8.632374689832795767e+00 -2.380017223965346762e+00 -2.242203307016368274e+00 -2.380017223965346762e+00 2.247221049957534245e+00 3.289514352198512626e+00 -2.242203307016368274e+00 3.289514352198512626e+00 3.308041718015547250e+00
-9.869690184630222518e+00 3.571918537652897463e+00 1.784187350979476561e+00 3.571918537652897463e+00 -3.667512465075533967e+00 -1.373924076692261131e+00 1.784187350979476561e+00 -1.373924076692261131e+00 1.597124900769187894e+00
7.099842283536043297e+00 3.485683508694658705e+00 1.122411224659745299e+00 3.485683508694658705e+00 6.025085797366330098e+00 -2.363367930846886455e+00 1.122411224659745299e+00 -2.363367930846886455e+00 -2.158248714499613197e+00
-5.977457340143530473e+00 3.272560893007869787e+00 3.690430092281401731e+00 3.272560893007869787e+00 6.641979192247683628e+00 -3.834853153391791114e+00 3.690430092281401731e+00 -3.834853153391791114e+00 -4.462566366989493716e+00
