9.444251754999999804e+00 1.539989123806752544e-23 -1.654361225106055350e-24 4.722126208410848847e+00 8.178961739499996497e+00 0.000000000000000000e+00 4.722126008751405202e+00 2.726320671226236225e+00 7.711199079333333373e+00
9.511307999999999652e+00 0.000000000000000000e+00 0.000000000000000000e+00 4.711495740000000154e+00 8.328879474000000727e+00 0.000000000000000000e+00 4.856434590000000107e+00 2.959084424999999907e+00 7.826188175000000413e+00
9.292473627999999763e+00 0.000000000000000000e+00 0.000000000000000000e+00 4.762999255999999626e+00 8.252860901000000027e+00 0.000000000000000000e+00 4.742552876999999611e+00 2.854504024000000140e+00 7.722582179999999852e+00
9.474156998999999857e+00 0.000000000000000000e+00 0.000000000000000000e+00 4.859213661000000073e+00 8.114990731000000679e+00 0.000000000000000000e+00 4.951677672999999835e+00 2.806728574000000087e+00 7.720872092999999659e+00
9.479180923999999564e+00 0.000000000000000000e+00 0.000000000000000000e+00 4.963970854000000266e+00 8.245249979000000451e+00 0.000000000000000000e+00 4.829118041000000083e+00 2.928051133999999944e+00 7.565986632999999628e+00
9.501875267000000846e+00 0.000000000000000000e+00 0.000000000000000000e+00 4.880004611000000381e+00 7.940417919999999796e+00 0.000000000000000000e+00 5.012677205000000136e+00 2.797348949999999945e+00 7.909756554000000328e+00
9.292560202000000658e+00 0.000000000000000000e+00 0.000000000000000000e+00 4.746917378000000021e+00 8.083595298000000540e+00 0.000000000000000000e+00 4.507627492000000125e+00 2.676025505000000138e+00 7.816973277999999858e+00
9.667795977000000818e+00 0.000000000000000000e+00 0.000000000000000000e+00 4.917905944000000140e+00 8.255823789000000801e+00 0.000000000000000000e+00 5.015383233999999746e+00 2.612517775999999792e+00 7.826207405999999978e+00
9.347322101999999688e+00 0.000000000000000000e+00 0.000000000000000000e+00 4.818360041000000038e+00 8.340192790999999772e+00 0.000000000000000000e+00 4.792788448999999673e+00 2.572930884999999890e+00 7.762903063999999631e+00
9.509915635000000478e+00 0.000000000000000000e+00 0.000000000000000000e+00 4.801538422000000139e+00 8.191279877999999570e+00 0.000000000000000000e+00 4.933731541000000220e+00 2.633506679999999989e+00 7.632753069999999695e+00
9.625712095000000801e+00 0.000000000000000000e+00 0.000000000000000000e+00 4.811961689000000320e+00 8.134470342000000187e+00 0.000000000000000000e+00 4.656850881000000442e+00 2.508073229999999931e+00 7.701092614000000225e+00
9.539648237000003306e+00 -1.235626174115914457e-23 1.654361225106055350e-24 4.769824453142900822e+00 8.261577514499995445e+00 6.617444900424221399e-24 4.769824251328757647e+00 2.753859263226236198e+00 7.789089979333333247e+00
9.292164434000000028e+00 0.000000000000000000e+00 0.000000000000000000e+00 4.469122192000000382e+00 8.143026450000000693e+00 0.000000000000000000e+00 4.380640248999999820e+00 2.582484419000000031e+00 7.908106275999999824e+00
9.577695411000000547e+00 0.000000000000000000e+00 0.000000000000000000e+00 4.804324247000000270e+00 8.503146824999999964e+00 0.000000000000000000e+00 4.819116853999999783e+00 2.744479471000000004e+00 7.860287511000000116e+00
9.798661779999999766e+00 0.000000000000000000e+00 0.000000000000000000e+00 5.036591206999999848e+00 8.360175350000000449e+00 0.000000000000000000e+00 4.924605773999999769e+00 2.670105491000000164e+00 7.754260406000000216e+00
9.427724632000000327e+00 0.000000000000000000e+00 0.000000000000000000e+00 4.888814986999999945e+00 8.227076618999999980e+00 0.000000000000000000e+00 4.735261731999999668e+00 2.909394718000000157e+00 7.670494503999999658e+00
9.819166874000000433e+00 0.000000000000000000e+00 0.000000000000000000e+00 5.024208210000000285e+00 8.288115571000000514e+00 0.000000000000000000e+00 4.815094189999999941e+00 2.721838475999999840e+00 8.001367506999999435e+00
9.396949807000000376e+00 0.000000000000000000e+00 0.000000000000000000e+00 4.878346299999999580e+00 8.491104369000000318e+00 0.000000000000000000e+00 4.678393952000000411e+00 2.629056382999999997e+00 7.613151295999999846e+00
9.496330705000000094e+00 0.000000000000000000e+00 0.000000000000000000e+00 4.522208490999999775e+00 8.493262425999999365e+00 0.000000000000000000e+00 4.843982868000000330e+00 2.999478319000000059e+00 8.003166942000000006e+00
9.512129991000000118e+00 0.000000000000000000e+00 0.000000000000000000e+00 4.568912495000000185e+00 8.400641892999999527e+00 0.000000000000000000e+00 4.483750620000000353e+00 2.792200215999999902e+00 7.895019233000000192e+00
9.391814071000000652e+00 0.000000000000000000e+00 0.000000000000000000e+00 4.524843419999999838e+00 8.460282039000000864e+00 0.000000000000000000e+00 4.803744696999999952e+00 2.797746017000000140e+00 7.714784501999999655e+00
9.378900060999999511e+00 0.000000000000000000e+00 0.000000000000000000e+00 4.764388693999999980e+00 8.264864577000000878e+00 0.000000000000000000e+00 4.894421165999999879e+00 2.970070366999999933e+00 7.831197132999999866e+00
9.635044718999999702e+00 1.609586203620561269e-23 -1.654361225106055350e-24 4.817522696874949162e+00 8.344193289499996169e+00 6.617444900424221399e-24 4.817522493906106540e+00 2.781397856169045557e+00 7.866980878999999760e+00
9.587673547999999712e+00 0.000000000000000000e+00 0.000000000000000000e+00 4.722468061999999911e+00 8.219238212000000487e+00 0.000000000000000000e+00 4.677491221999999560e+00 2.681107690000000154e+00 7.732465855000000055e+00
9.347536264000000372e+00 0.000000000000000000e+00 0.000000000000000000e+00 4.912811773999999687e+00 8.134418611999999271e+00 0.000000000000000000e+00 4.607782485000000428e+00 2.686012363000000125e+00 7.813510804999999948e+00
9.727798376999999164e+00 0.000000000000000000e+00 0.000000000000000000e+00 5.093708409999999631e+00 8.223854534999999188e+00 0.000000000000000000e+00 4.735805800999999704e+00 2.800389868999999976e+00 8.070439427000000165e+00
9.527553670999999724e+00 0.000000000000000000e+00 0.000000000000000000e+00 4.919359468999999763e+00 8.365803443000000783e+00 0.000000000000000000e+00 5.007972805999999721e+00 2.838389069000000209e+00 8.040542550999999705e+00
9.481070664000000647e+00 0.000000000000000000e+00 0.000000000000000000e+00 4.984565650000000403e+00 8.274791659999999993e+00 0.000000000000000000e+00 4.661436129000000150e+00 2.580843955999999828e+00 7.845018164999999932e+00
9.521455393000000100e+00 0.000000000000000000e+00 0.000000000000000000e+00 4.517236719999999650e+00 8.289690386000000188e+00 0.000000000000000000e+00 4.675299264000000399e+00 2.967889394000000181e+00 7.792901437000000264e+00
9.478155634000000163e+00 0.000000000000000000e+00 0.000000000000000000e+00 4.883854839999999697e+00 8.211474250000000197e+00 0.000000000000000000e+00 4.902424243999999653e+00 2.927562915000000210e+00 8.095389912999999993e+00
9.753835950999999227e+00 0.000000000000000000e+00 0.000000000000000000e+00 4.871596919999999997e+00 8.173085999999999629e+00 0.000000000000000000e+00 4.945507890000000017e+00 2.780495607999999841e+00 8.027564711000000131e+00
9.380885840999999559e+00 0.000000000000000000e+00 0.000000000000000000e+00 4.884649184999999783e+00 8.151562238000000349e+00 0.000000000000000000e+00 4.714112822999999786e+00 2.859216838000000038e+00 7.888442729000000320e+00
9.761837693000000371e+00 0.000000000000000000e+00 0.000000000000000000e+00 4.861694392999999614e+00 8.255090544999999835e+00 0.000000000000000000e+00 4.723925020000000252e+00 2.719778671999999897e+00 7.647989544999999723e+00
1.022633134100005314e+01 -5.574671282061913899e-25 -4.534079275225763533e-24 5.113167073480560987e+00 8.856261851999924772e+00 -1.778189141071760459e-23 5.113167267842459118e+00 2.952088006095691775e+00 8.349763466333254058e+00
1.026518554899999991e+01 0.000000000000000000e+00 0.000000000000000000e+00 5.264127091999999841e+00 9.009653233999999955e+00 0.000000000000000000e+00 5.307652004999999562e+00 2.767767172000000109e+00 8.552098752999999220e+00
1.050736633200000014e+01 0.000000000000000000e+00 0.000000000000000000e+00 5.347998798999999970e+00 8.955004575000000244e+00 0.000000000000000000e+00 5.339767962999999895e+00 3.007183122999999902e+00 8.139673778000000581e+00
1.048801549999999949e+01 0.000000000000000000e+00 0.000000000000000000e+00 5.382967240000000153e+00 8.888715175999999829e+00 0.000000000000000000e+00 5.215397504000000239e+00 3.167247023999999911e+00 8.255962410000000418e+00
1.051366392599999955e+01 0.000000000000000000e+00 0.000000000000000000e+00 5.297020787000000119e+00 9.058939280000000593e+00 0.000000000000000000e+00 5.199992231000000409e+00 3.163354501000000152e+00 8.469179720999999716e+00
1.042488401800000020e+01 0.000000000000000000e+00 0.000000000000000000e+00 4.962508845000000335e+00 9.044100839000000391e+00 0.000000000000000000e+00 4.945611663000000213e+00 3.007698580000000010e+00 8.341018159000000765e+00
1.015321189299999993e+01 0.000000000000000000e+00 0.000000000000000000e+00 5.288646813999999807e+00 8.897814836000000227e+00 0.000000000000000000e+00 5.312197547000000242e+00 2.854768795000000026e+00 8.515161859999999194e+00
1.035235762199999954e+01 0.000000000000000000e+00 0.000000000000000000e+00 4.990161100999999988e+00 9.017239053000000837e+00 0.000000000000000000e+00 5.343430951000000206e+00 3.185062229000000134e+00 8.261506724000000190e+00
1.019579601599999918e+01 0.000000000000000000e+00 0.000000000000000000e+00 5.029902383999999671e+00 9.119905050999999929e+00 0.000000000000000000e+00 5.307143383999999742e+00 2.898131695000000008e+00 8.507743598999999435e+00
1.033925501100000055e+01 0.000000000000000000e+00 0.000000000000000000e+00 4.906410744999999629e+00 9.021686085000000688e+00 0.000000000000000000e+00 5.278067378000000254e+00 3.055253495000000097e+00 8.521940486000000092e+00
1.029435768199999934e+01 0.000000000000000000e+00 0.000000000000000000e+00 4.948569680000000304e+00 9.064645999999999759e+00 0.000000000000000000e+00 5.073009222999999679e+00 2.890881666999999933e+00 8.231285018999999537e+00
1.032962761700006027e+01 -1.028260768086277583e-22 -1.329507250819039724e-22 5.164815226274790838e+00 8.945719042499925777e+00 6.234005282476641631e-23 5.164815422156013192e+00 2.981907077838330533e+00 8.434104511333250898e+00
1.031554170599999942e+01 0.000000000000000000e+00 0.000000000000000000e+00 4.920517744999999721e+00 8.976690471999999588e+00 0.000000000000000000e+00 5.277166573999999777e+00 2.990912200999999992e+00 8.332096447999999711e+00
1.031618953799999971e+01 0.000000000000000000e+00 0.000000000000000000e+00 4.926810421999999967e+00 9.206447943000000578e+00 0.000000000000000000e+00 5.249540696000000395e+00 2.959683002999999868e+00 8.348092443000000529e+00
1.032025787100000080e+01 0.000000000000000000e+00 0.000000000000000000e+00 4.916073288999999846e+00 8.857261765000000509e+00 0.000000000000000000e+00 5.116833021999999787e+00 2.861468850000000064e+00 8.573477741999999679e+00
1.020452115500000012e+01 0.000000000000000000e+00 0.000000000000000000e+00 5.337390274999999740e+00 8.944724521999999567e+00 0.000000000000000000e+00 5.218501544000000436e+00 3.047204552999999816e+00 8.397506366000000000e+00
1.018977602200000021e+01 0.000000000000000000e+00 0.000000000000000000e+00 5.089752310999999807e+00 8.759914501000000797e+00 0.000000000000000000e+00 4.901870706000000411e+00 3.112809271999999794e+00 8.288508465999999686e+00
1.042906075099999974e+01 0.000000000000000000e+00 0.000000000000000000e+00 4.972424945000000207e+00 9.021693470000000659e+00 0.000000000000000000e+00 5.121121103000000119e+00 3.007580030000000182e+00 8.217713978000000807e+00
1.035491458699999967e+01 0.000000000000000000e+00 0.000000000000000000e+00 5.389931903999999996e+00 8.846441047000000779e+00 0.000000000000000000e+00 5.387127954000000329e+00 3.051569798000000056e+00 8.575026655000000275e+00
1.008670423599999921e+01 0.000000000000000000e+00 0.000000000000000000e+00 5.022236034999999710e+00 8.959431189000000018e+00 0.000000000000000000e+00 5.153379905999999622e+00 2.770063645000000019e+00 8.568488394999999258e+00
1.046761538600000030e+01 0.000000000000000000e+00 0.000000000000000000e+00 5.340298744000000042e+00 9.160843181000000612e+00 0.000000000000000000e+00 5.240431283999999579e+00 3.155909419999999965e+00 8.496378594999999478e+00
1.052190386100000019e+01 0.000000000000000000e+00 0.000000000000000000e+00 5.098502069000000247e+00 8.983434125000000492e+00 0.000000000000000000e+00 5.162778140000000349e+00 2.819719409000000176e+00 8.600735045000000412e+00
1.043292389300005496e+01 1.274947358481599657e-22 -4.960913407500709658e-23 5.216463379202991746e+00 9.035176232499921412e+00 1.456816438316632922e-22 5.216463577180887157e+00 3.011726148138159420e+00 8.518445556666584650e+00
1.069032560900000028e+01 0.000000000000000000e+00 0.000000000000000000e+00 5.362226985000000390e+00 9.256213300000000643e+00 0.000000000000000000e+00 5.522902554999999936e+00 3.034906313000000022e+00 8.518348758000000132e+00
1.047457638500000066e+01 0.000000000000000000e+00 0.000000000000000000e+00 5.344664825999999813e+00 9.058306076999999235e+00 0.000000000000000000e+00 5.173745860000000363e+00 3.152227485000000051e+00 8.430069953000000282e+00
1.042332061699999990e+01 0.000000000000000000e+00 0.000000000000000000e+00 5.016586024000000421e+00 9.205734230999999212e+00 0.000000000000000000e+00 5.198056987000000184e+00 3.089044106999999872e+00 8.480501192000000188e+00
1.054765806700000041e+01 0.000000000000000000e+00 0.000000000000000000e+00 5.198174501999999642e+00 8.860471346000000636e+00 0.000000000000000000e+00 5.196234844000000130e+00 2.866121301999999815e+00 8.496597736000000012e+00
1.057272133799999914e+01 0.000000000000000000e+00 0.000000000000000000e+00 5.222961527999999909e+00 9.120058009999999271e+00 0.000000000000000000e+00 5.309549019000000314e+00 3.249789838999999958e+00 8.382019649000000072e+00
1.030750602100000002e+01 0.000000000000000000e+00 0.000000000000000000e+00 5.332894510000000032e+00 9.266459275000000773e+00 0.000000000000000000e+00 5.346974765999999768e+00 3.275457073000000108e+00 8.579809055000000129e+00
1.056190386199999942e+01 0.000000000000000000e+00 0.000000000000000000e+00 5.436553391000000346e+00 8.847974974999999631e+00 0.000000000000000000e+00 5.295227743999999959e+00 2.807432067999999781e+00 8.368768113999999869e+00
1.038344636899999962e+01 0.000000000000000000e+00 0.000000000000000000e+00 5.360963759999999745e+00 9.149052305999999746e+00 0.000000000000000000e+00 5.176234027999999654e+00 3.087674774999999983e+00 8.411855995999999891e+00
1.039900117500000043e+01 0.000000000000000000e+00 0.000000000000000000e+00 5.223446069000000413e+00 8.923797520000000816e+00 0.000000000000000000e+00 5.231246726000000180e+00 2.877039289999999916e+00 8.677112887999999913e+00
1.028410016299999974e+01 0.000000000000000000e+00 0.000000000000000000e+00 5.265060906000000429e+00 9.010370656999999284e+00 0.000000000000000000e+00 5.153498311999999970e+00 2.768569128999999851e+00 8.556630211999999958e+00
