3.148080038527100832e+00 1.817549943954452907e+00 1.285199984888877101e+00 4.722130060444164279e+00 2.726319927363037632e+00 3.855599977333331818e+00 6.296170082361227216e+00 3.635089910771824862e+00 6.425999969777800302e+00 4.722130093664038242e+00 4.543869912120956478e+00 1.285199966555536477e+00 6.296170115581101179e+00 5.452639895529743264e+00 3.855599959000004517e+00 7.870210137498164116e+00 6.361409878938530937e+00 6.425999951444473446e+00 6.296170148800975142e+00 7.270189880287662554e+00 1.285199948222209398e+00 7.870210170718038079e+00 8.178959863696448451e+00 3.855599940666677661e+00 9.444250192635305297e+00 9.087739847105236635e+00 6.425999933111087081e+00 6.296170038527099777e+00 1.817549880287663067e+00 1.285199980555535859e+00 7.870210060444162714e+00 2.726319863696450074e+00 3.855599973000003899e+00 9.444250082361227427e+00 3.635089847105237748e+00 6.425999965444472828e+00 7.870210093664036677e+00 4.543869848454368920e+00 1.285199962222208780e+00 9.444250115581100502e+00 5.452639831863155706e+00 3.855599954666677043e+00 1.101829013749816255e+01 6.361409815271943380e+00 6.425999947111145971e+00 9.444250148800973577e+00 7.270189816621074996e+00 1.285199943888881924e+00 1.101829017071803563e+01 8.178959800029861782e+00 3.855599936333350186e+00 1.259234019263530335e+01 9.087739783438445684e+00 6.425999928777745396e+00 9.444250038527098212e+00 1.817549816621075731e+00 1.285199976222208162e+00 1.101829006044416026e+01 2.726319800029862517e+00 3.855599968666676425e+00 1.259234008236122548e+01 3.635089783438447686e+00 6.425999961111131142e+00 1.101829009366403334e+01 4.543869784787781363e+00 1.285199957888881306e+00 1.259234011558109856e+01 5.452639768196366532e+00 3.855599950333335801e+00 1.416638013749816061e+01 6.361409751605153318e+00 6.425999942777804286e+00 1.259234014880097163e+01 7.270189752954284934e+00 1.285199939555540682e+00 1.416638017071803368e+01 8.178959736363070832e+00 3.855599932000008945e+00 1.574042019263530179e+01 9.087739719771859015e+00 6.425999924444417921e+00 9.444249999999996703e+00 -1.909999645840697207e-07 -1.299999645164407801e-08 1.101829002191706053e+01 9.087697924088226076e-01 2.570399979444471406e+00 1.259234004383432470e+01 1.817549775817407731e+00 5.140799971888866615e+00 1.101829005513693183e+01 2.726319777166740899e+00 -3.133332338516014216e-08 1.259234007705399705e+01 3.635089760575326068e+00 2.570399961111130782e+00 1.416638009897125983e+01 4.543869743984114251e+00 5.140799953555539759e+00 1.259234011027387012e+01 5.452639745333244470e+00 -4.966666408366173148e-08 1.416638013219113468e+01 6.361419728742031765e+00 2.570399942777744862e+00 1.574042015410819850e+01 7.270189712150819439e+00 5.140799935222212902e+00 3.148079999999998879e+00 -6.366658744821645165e-08 -4.333327562219518993e-09 4.722130021917061882e+00 9.087699197419975006e-01 2.570399988111126799e+00 6.296170043834327323e+00 1.817549903150784685e+00 5.140799980555535775e+00 4.722130055136935844e+00 2.726319904499916014e+00 -2.266666826072110583e-08 6.296170077053998781e+00 3.635089887908703243e+00 2.570399969777799942e+00 7.870210098971264223e+00 4.543869871317490983e+00 5.140799962222208919e+00 6.296170110273872744e+00 5.452639872666621201e+00 -4.099999519423717328e-08 7.870210132190935681e+00 6.361409856075409763e+00 2.570399951444473086e+00 9.444250154108202011e+00 7.270189839484197059e+00 5.140799943888882062e+00 6.296169999999997380e+00 -1.273333771358532690e-07 -8.666668889424559848e-09 7.870210021917060317e+00 9.087698560754100541e-01 2.570399983777799324e+00 9.444250043834326647e+00 1.817549839484197349e+00 5.140799976222208301e+00 7.870210055136934280e+00 2.726319840833328456e+00 -2.699999582294062234e-08 9.444250077053998993e+00 3.635089824242116130e+00 2.570399965444472024e+00 1.101829009897126177e+01 4.543869807650903425e+00 5.140799957888881444e+00 9.444250110273872068e+00 5.452639809000033644e+00 -4.533332275645668649e-08 1.101829013219093412e+01 6.361409792408822206e+00 2.570399947111145167e+00 1.259234015410820007e+01 7.270189775817406996e+00 5.140799939555540377e+00
3.185309999999999864e+00 1.887129999999999974e+00 1.306869999999999976e+00 4.791459999999999830e+00 2.871820000000000039e+00 3.918149999999999800e+00 6.409360000000000390e+00 3.849619999999999820e+00 6.509509999999999685e+00 4.754559999999999675e+00 4.657280000000000086e+00 1.306009999999999893e+00 6.372329999999999828e+00 5.640679999999999694e+00 3.909559999999999924e+00 7.977280000000000371e+00 6.624769999999999825e+00 6.523469999999999658e+00 6.312630000000000408e+00 7.438220000000000276e+00 1.300929999999999920e+00 7.931540000000000035e+00 8.411270000000000024e+00 3.904939999999999856e+00 9.557199999999999918e+00 9.408659999999999357e+00 6.521289999999999587e+00 6.361500000000000377e+00 1.884409999999999918e+00 1.318740000000000023e+00 7.976169999999999760e+00 2.861889999999999823e+00 3.923900000000000166e+00 9.578810000000000713e+00 3.839389999999999858e+00 6.528400000000000425e+00 7.921059999999999768e+00 4.662160000000000082e+00 1.304340000000000055e+00 9.544190000000000396e+00 5.656640000000000335e+00 3.926810000000000134e+00 1.115748999999999924e+01 6.630209999999999937e+00 6.522990000000000066e+00 9.496000000000000441e+00 7.426569999999999894e+00 1.297639999999999905e+00 1.110154999999999959e+01 8.414049999999999585e+00 3.919820000000000082e+00 1.274630999999999936e+01 9.409769999999999968e+00 6.528299999999999770e+00 9.515240000000000364e+00 1.877050000000000107e+00 1.311409999999999965e+00 1.114406999999999925e+01 2.871849999999999792e+00 3.913860000000000117e+00 1.277103999999999928e+01 3.857169999999999987e+00 6.508210000000000051e+00 1.109595999999999982e+01 4.671299999999999564e+00 1.302939999999999987e+00 1.270307000000000031e+01 5.631929999999999659e+00 3.916959999999999997e+00 1.432194999999999929e+01 6.620409999999999684e+00 6.524390000000000356e+00 1.267622000000000071e+01 7.443850000000000300e+00 1.297919999999999963e+00 1.427626000000000062e+01 8.402710000000000790e+00 3.920360000000000067e+00 1.590016999999999925e+01 9.409919999999999618e+00 6.537410000000000387e+00 1.436660000000000004e+01 2.959080000000000155e+00 7.825899999999999856e+00 6.332429999999999559e+00 9.311669999999999447e+00 2.612260000000000026e+00 1.274196000000000062e+01 1.978939999999999921e+00 5.218359999999999665e+00 1.592462000000000089e+01 5.722749999999999559e+00 7.819919999999999760e+00 3.189620000000000122e+00 3.761769999999999836e+00 2.608560000000000212e+00 1.432048999999999950e+01 4.756490000000000329e+00 5.232400000000000162e+00 8.003069999999999240e+00 8.518000000000000682e+00 7.825499999999999901e+00 4.764660000000000117e+00 6.525170000000000137e+00 2.596410000000000107e+00 1.587737000000000087e+01 7.516980000000000217e+00 5.207980000000000054e+00 8.015090000000000714e+00 2.962000000000000188e+00 7.823889999999999567e+00 4.791509999999999714e+00 9.902800000000000491e-01 2.610149999999999970e+00 6.409159999999999968e+00 1.979179999999999939e+00 5.216899999999999871e+00 4.740070000000000228e+00 2.776499999999999968e+00 1.410000000000000012e-03 6.361369999999999969e+00 3.764949999999999797e+00 2.617989999999999817e+00 7.968619999999999592e+00 4.760790000000000077e+00 5.228480000000000238e+00 1.117492999999999981e+01 8.501450000000000173e+00 7.811300000000000132e+00 7.920119999999999827e+00 6.547039999999999971e+00 2.611340000000000217e+00 9.559810000000000585e+00 7.517210000000000392e+00 5.226359999999999673e+00 1.104823999999999984e+01 8.326859999999999928e+00 1.238999999999999997e-02 1.267042999999999964e+01 9.307010000000000005e+00 2.609949999999999992e+00 1.427797999999999945e+01 1.028891999999999918e+01 5.208630000000000315e+00 7.911139999999999617e+00 2.770919999999999828e+00 3.499999999999999964e-04 9.533400000000000318e+00 3.760450000000000070e+00 2.613820000000000032e+00 1.115787000000000084e+01 4.733780000000000321e+00 5.212720000000000020e+00 9.471249999999999503e+00 5.559269999999999712e+00 1.043999999999999963e-02 1.109956000000000031e+01 6.537219999999999587e+00 2.610479999999999912e+00 1.270983999999999980e+01 7.538630000000000386e+00 5.225489999999999746e+00
3.142240000000000144e+00 1.857040000000000024e+00 1.294010000000000105e+00 4.703730000000000189e+00 2.795080000000000009e+00 3.869940000000000158e+00 6.302469999999999573e+00 3.741449999999999942e+00 6.447540000000000049e+00 4.717640000000000278e+00 4.592209999999999681e+00 1.295400000000000107e+00 6.303720000000000212e+00 5.552690000000000126e+00 3.859160000000000146e+00 7.877729999999999677e+00 6.498870000000000147e+00 6.437479999999999869e+00 6.310249999999999915e+00 7.354330000000000034e+00 1.285730000000000040e+00 7.897710000000000008e+00 8.298270000000000479e+00 3.873540000000000205e+00 9.470990000000000464e+00 9.249810000000000088e+00 6.435550000000000104e+00 6.232230000000000381e+00 1.849909999999999943e+00 1.286620000000000097e+00 7.797830000000000261e+00 2.799290000000000056e+00 3.873540000000000205e+00 9.394489999999999341e+00 3.750799999999999912e+00 6.433900000000000396e+00 7.816769999999999996e+00 4.601060000000000372e+00 1.288990000000000080e+00 9.386179999999999524e+00 5.555500000000000327e+00 3.874629999999999797e+00 1.097931999999999952e+01 6.504640000000000200e+00 6.436720000000000219e+00 9.418559999999999377e+00 7.365190000000000126e+00 1.282520000000000104e+00 1.099799999999999933e+01 8.290139999999999176e+00 3.866610000000000102e+00 1.257086999999999932e+01 9.260389999999999233e+00 6.437780000000000058e+00 9.329000000000000625e+00 1.850130000000000052e+00 1.288300000000000001e+00 1.092007000000000083e+01 2.796139999999999848e+00 3.866369999999999862e+00 1.248897000000000013e+01 3.754420000000000091e+00 6.435670000000000002e+00 1.092802999999999969e+01 4.600590000000000401e+00 1.294790000000000108e+00 1.249666999999999994e+01 5.553880000000000372e+00 3.861190000000000122e+00 1.407089999999999996e+01 6.512080000000000091e+00 6.432489999999999597e+00 1.250629999999999953e+01 7.360380000000000145e+00 1.300270000000000037e+00 1.408660000000000068e+01 8.307600000000000762e+00 3.863500000000000156e+00 1.566546999999999912e+01 9.256169999999999121e+00 6.440920000000000201e+00 1.403378000000000014e+01 2.859999999999999876e+00 7.720819999999999794e+00 6.351799999999999891e+00 9.199040000000000106e+00 2.576919999999999877e+00 1.721497000000000099e+01 1.015389000000000053e+01 5.149619999999999642e+00 1.587749999999999995e+00 2.750989999999999824e+00 1.299999999999999886e-04 3.170259999999999856e+00 3.700670000000000126e+00 2.572550000000000114e+00 1.403955000000000020e+01 4.651060000000000194e+00 5.159139999999999837e+00 7.915939999999999976e+00 8.351889999999999148e+00 7.719159999999999577e+00 4.757439999999999891e+00 6.447479999999999656e+00 2.577409999999999979e+00 6.355509999999999771e+00 7.401650000000000063e+00 5.145950000000000024e+00 7.827519999999999811e+00 2.862169999999999881e+00 7.717410000000000103e+00 4.690559999999999619e+00 9.649299999999999544e-01 2.574739999999999807e+00 1.101989999999999981e+01 1.015471999999999930e+01 5.150129999999999875e+00 9.427809999999999135e+00 5.605540000000000411e+00 7.722529999999999895e+00 6.264829999999999899e+00 3.700470000000000148e+00 2.574840000000000018e+00 7.840889999999999915e+00 4.653909999999999769e+00 5.143299999999999983e+00 1.101779999999999937e+01 8.358829999999999316e+00 7.722470000000000390e+00 7.860689999999999955e+00 6.459489999999999732e+00 2.568090000000000206e+00 9.430279999999999774e+00 7.399890000000000079e+00 5.147479999999999833e+00 1.094251000000000040e+01 2.855649999999999800e+00 7.719109999999999694e+00 7.784010000000000318e+00 9.602500000000000480e-01 2.571289999999999853e+00 1.411414000000000080e+01 1.015328000000000053e+01 5.152370000000000339e+00 1.252363000000000071e+01 5.609869999999999912e+00 7.717640000000000278e+00 9.362539999999999196e+00 3.703870000000000218e+00 2.572670000000000012e+00 1.095317000000000007e+01 4.650649999999999729e+00 5.151550000000000296e+00 9.370760000000000645e+00 5.501109999999999722e+00 3.800000000000000209e-04 1.095614999999999917e+01 6.452860000000000262e+00 2.581780000000000186e+00 1.252093999999999951e+01 7.417699999999999960e+00 5.150890000000000413e+00
3.215139999999999887e+00 1.817260000000000097e+00 1.281870000000000065e+00 4.864220000000000432e+00 2.756510000000000016e+00 3.859280000000000044e+00 6.520620000000000083e+00 3.693659999999999943e+00 6.436280000000000001e+00 4.831360000000000099e+00 4.531270000000000131e+00 1.277320000000000011e+00 6.487759999999999749e+00 5.458459999999999646e+00 3.875480000000000036e+00 8.147100000000000009e+00 6.405630000000000379e+00 6.431580000000000297e+00 6.454799999999999649e+00 7.229040000000000354e+00 1.288910000000000000e+00 8.098710000000000520e+00 8.166729999999999379e+00 3.855980000000000185e+00 9.761250000000000426e+00 9.107020000000000337e+00 6.431689999999999685e+00 6.370829999999999771e+00 1.819350000000000023e+00 1.285260000000000069e+00 8.026249999999999218e+00 2.762119999999999909e+00 3.861950000000000216e+00 9.673750000000000071e+00 3.691349999999999909e+00 6.433699999999999974e+00 7.991200000000000081e+00 4.525420000000000442e+00 1.285879999999999912e+00 9.642429999999999168e+00 5.453680000000000305e+00 3.854280000000000150e+00 1.129151000000000060e+01 6.398430000000000284e+00 6.436609999999999943e+00 9.611299999999999955e+00 7.232070000000000221e+00 1.288920000000000066e+00 1.126083999999999996e+01 8.166050000000000253e+00 3.862099999999999866e+00 1.291751999999999967e+01 9.101340000000000430e+00 6.431650000000000311e+00 9.528090000000000614e+00 1.809989999999999988e+00 1.282739999999999991e+00 1.117665000000000042e+01 2.753109999999999946e+00 3.864889999999999937e+00 1.282539000000000051e+01 3.692480000000000206e+00 6.429820000000000313e+00 1.115471999999999930e+01 4.523450000000000415e+00 1.293909999999999894e+00 1.280001000000000033e+01 5.461020000000000429e+00 3.859649999999999803e+00 1.445364000000000004e+01 6.408249999999999780e+00 6.436700000000000088e+00 1.276509000000000071e+01 7.246990000000000265e+00 1.288380000000000081e+00 1.441789999999999949e+01 8.171300000000000452e+00 3.855589999999999851e+00 1.607200999999999880e+01 9.103780000000000427e+00 6.436399999999999899e+00 1.432709999999999972e+01 8.112690000000000623e+00 3.360000000000000139e-03 1.656970000000000054e+00 9.384500000000000064e-01 2.573459999999999859e+00 8.156109999999999971e+00 9.970510000000000872e+00 5.141309999999999825e+00 6.573170000000000179e+00 5.504509999999999792e+00 7.714260000000000339e+00 1.274435000000000073e+01 3.640660000000000007e+00 2.573719999999999786e+00 4.923879999999999590e+00 4.580259999999999998e+00 5.138810000000000322e+00 1.271584000000000003e+01 5.416240000000000165e+00 2.079999999999999818e-03 4.890600000000000058e+00 6.345579999999999998e+00 2.574009999999999909e+00 6.541800000000000281e+00 7.281329999999999636e+00 5.146510000000000140e+00 3.153960000000000097e+00 3.540000000000000178e-03 1.740000000000000010e-03 9.668010000000000659e+00 9.050369999999999138e+00 2.573379999999999779e+00 6.460960000000000036e+00 1.881839999999999957e+00 5.138700000000000045e+00 9.731279999999999930e+00 5.503999999999999559e+00 7.715779999999999639e+00 6.438760000000000261e+00 3.647530000000000161e+00 2.581850000000000200e+00 8.089370000000000616e+00 4.584039999999999893e+00 5.146539999999999893e+00 6.397459999999999702e+00 5.418610000000000149e+00 3.099999999999999891e-03 8.035560000000000258e+00 6.344870000000000232e+00 2.562079999999999913e+00 9.698600000000000776e+00 7.284559999999999924e+00 5.149700000000000166e+00 6.310769999999999769e+00 6.199999999999999782e-03 1.152000000000000073e-02 1.282661000000000051e+01 9.048130000000000450e+00 2.579699999999999882e+00 1.447570999999999941e+01 9.984009999999999607e+00 5.156170000000000364e+00 7.920259999999999856e+00 2.694160000000000110e+00 5.199999999999999761e-03 9.571260000000000545e+00 3.643050000000000122e+00 2.569980000000000153e+00 1.122897999999999996e+01 4.569230000000000125e+00 5.147230000000000416e+00 1.451835999999999949e+01 8.222369999999999735e+00 7.712579999999999991e+00 1.119988999999999990e+01 6.335230000000000139e+00 2.572080000000000144e+00 1.285427999999999926e+01 7.277759999999999785e+00 5.140249999999999986e+00
3.215170000000000083e+00 1.858519999999999950e+00 1.274620000000000086e+00 4.819329999999999892e+00 2.824720000000000120e+00 3.772920000000000051e+00 6.430649999999999977e+00 3.815850000000000186e+00 6.301319999999999588e+00 4.860619999999999941e+00 4.606900000000000439e+00 1.276170000000000027e+00 6.470430000000000348e+00 5.584010000000000140e+00 3.787459999999999827e+00 8.079010000000000247e+00 6.569219999999999615e+00 6.307719999999999771e+00 6.524289999999999701e+00 7.362870000000000026e+00 1.255319999999999991e+00 8.141519999999999868e+00 8.328049999999999287e+00 3.785800000000000054e+00 9.742720000000000269e+00 9.317389999999999617e+00 6.309739999999999682e+00 6.373300000000000409e+00 1.858630000000000004e+00 1.267789999999999973e+00 7.985199999999999854e+00 2.832190000000000207e+00 3.777969999999999828e+00 9.600690000000000168e+00 3.823679999999999968e+00 6.290580000000000283e+00 8.022130000000000649e+00 4.616649999999999920e+00 1.249579999999999913e+00 9.643140000000000711e+00 5.579699999999999882e+00 3.791739999999999888e+00 1.125006999999999913e+01 6.564939999999999998e+00 6.309759999999999813e+00 9.678409999999999513e+00 7.348279999999999923e+00 1.263479999999999936e+00 1.129288999999999987e+01 8.337740000000000151e+00 3.780930000000000124e+00 1.290316999999999936e+01 9.299530000000000740e+00 6.312369999999999592e+00 9.518589999999999662e+00 1.865639999999999965e+00 1.263819999999999943e+00 1.112892000000000081e+01 2.843379999999999797e+00 3.776330000000000187e+00 1.274944999999999951e+01 3.814039999999999875e+00 6.305399999999999672e+00 1.119040000000000035e+01 4.607569999999999943e+00 1.268000000000000016e+00 1.280031999999999925e+01 5.589129999999999932e+00 3.770980000000000221e+00 1.440155000000000030e+01 6.564409999999999634e+00 6.299360000000000070e+00 1.284110000000000085e+01 7.357870000000000132e+00 1.258939999999999948e+00 1.445534999999999926e+01 8.336460000000000647e+00 3.769859999999999989e+00 1.606493000000000038e+01 9.300900000000000389e+00 6.299470000000000347e+00 1.927065999999999946e+01 1.117229999999999990e+01 7.564669999999999561e+00 6.581550000000000011e+00 9.211009999999999920e+00 2.525650000000000173e+00 8.186809999999999476e+00 1.019002000000000052e+01 5.033990000000000187e+00 1.113073999999999941e+01 2.761429999999999829e+00 4.930000000000000354e-03 1.273367999999999967e+01 3.723609999999999864e+00 2.521949999999999914e+00 4.879030000000000200e+00 4.693489999999999718e+00 5.046879999999999811e+00 1.276867999999999981e+01 5.494950000000000223e+00 2.900000000000000017e-04 4.922589999999999577e+00 6.473220000000000418e+00 2.528150000000000119e+00 1.600493000000000166e+01 7.464290000000000092e+00 5.047220000000000262e+00 7.979000000000000092e+00 2.930239999999999956e+00 7.553259999999999863e+00 9.746529999999999916e+00 9.207390000000000185e+00 2.518289999999999917e+00 6.379850000000000243e+00 1.953929999999999945e+00 5.044830000000000148e+00 4.810649999999999871e+00 2.750980000000000203e+00 2.710000000000000169e-03 6.422500000000000320e+00 3.741999999999999993e+00 2.513510000000000133e+00 8.030870000000000175e+00 4.712679999999999758e+00 5.053530000000000300e+00 1.130699000000000076e+01 8.424419999999999575e+00 7.557780000000000165e+00 8.073050000000000281e+00 6.478740000000000165e+00 2.530679999999999819e+00 9.693690000000000140e+00 7.446380000000000443e+00 5.039749999999999730e+00 6.313100000000000378e+00 1.059000000000000045e-02 1.030000000000000013e-02 7.938340000000000174e+00 9.850600000000000467e-01 2.516259999999999941e+00 1.450132999999999939e+01 1.019323999999999941e+01 5.045399999999999885e+00 7.985000000000000320e+00 2.750599999999999934e+00 1.900000000000000105e-04 9.581649999999999778e+00 3.723259999999999792e+00 2.521279999999999966e+00 1.119350000000000023e+01 4.700440000000000396e+00 5.043999999999999595e+00 1.446513999999999989e+01 8.440569999999999240e+00 7.559110000000000440e+00 1.122490999999999950e+01 6.468040000000000234e+00 2.523779999999999912e+00 1.285598000000000063e+01 7.453680000000000305e+00 5.034329999999999750e+00
3.241019999999999790e+00 1.801900000000000057e+00 1.327779999999999960e+00 4.906810000000000116e+00 2.720310000000000006e+00 3.952080000000000037e+00 6.575540000000000163e+00 3.653420000000000112e+00 6.589220000000000077e+00 4.859239999999999782e+00 4.436950000000000394e+00 1.318719999999999892e+00 6.514920000000000044e+00 5.377419999999999867e+00 3.948440000000000172e+00 8.203630000000000422e+00 6.303960000000000008e+00 6.588849999999999874e+00 6.490920000000000023e+00 7.079869999999999663e+00 1.316380000000000106e+00 8.152490000000000236e+00 8.012330000000000396e+00 3.960469999999999935e+00 9.817890000000000228e+00 8.952989999999999782e+00 6.598019999999999996e+00 6.407720000000000304e+00 1.795500000000000096e+00 1.320440000000000058e+00 8.069760000000000488e+00 2.719370000000000065e+00 3.951550000000000118e+00 9.749409999999999243e+00 3.655650000000000066e+00 6.583260000000000112e+00 8.026970000000000383e+00 4.438209999999999766e+00 1.318319999999999936e+00 9.702059999999999462e+00 5.359210000000000029e+00 3.941809999999999814e+00 1.135197999999999929e+01 6.305419999999999803e+00 6.599289999999999878e+00 9.646369999999999223e+00 7.081559999999999633e+00 1.320300000000000029e+00 1.132422000000000040e+01 8.015219999999999345e+00 3.954450000000000021e+00 1.300413999999999959e+01 8.961220000000000852e+00 6.598790000000000155e+00 9.568789999999999907e+00 1.790129999999999999e+00 1.324540000000000051e+00 1.122925000000000040e+01 2.733979999999999855e+00 3.963630000000000209e+00 1.291302999999999912e+01 3.653789999999999871e+00 6.596079999999999721e+00 1.119763999999999982e+01 4.436320000000000263e+00 1.314410000000000078e+00 1.286262999999999934e+01 5.373459999999999681e+00 3.958369999999999944e+00 1.453453000000000017e+01 6.307690000000000019e+00 6.599499999999999922e+00 1.282442999999999955e+01 7.076780000000000292e+00 1.336750000000000105e+00 1.449515000000000065e+01 8.018489999999999895e+00 3.958180000000000032e+00 1.616215000000000046e+01 8.947469999999999146e+00 6.591450000000000031e+00 5.019569999999999865e+00 2.797099999999999920e+00 7.909060000000000201e+00 6.560529999999999973e+00 8.870490000000000208e+00 2.630920000000000147e+00 1.283273999999999937e+01 1.865609999999999991e+00 5.257929999999999993e+00 1.111261999999999972e+01 2.655650000000000066e+00 5.660000000000000100e-03 1.280059999999999931e+01 3.581869999999999887e+00 2.637109999999999843e+00 1.446856000000000009e+01 4.514870000000000161e+00 5.273439999999999905e+00 1.776120999999999839e+01 8.101520000000000721e+00 7.902949999999999697e+00 4.927740000000000009e+00 6.221309999999999896e+00 2.639240000000000030e+00 6.607770000000000366e+00 7.159880000000000244e+00 5.276480000000000281e+00 3.167139999999999844e+00 2.700000000000000035e-04 3.800000000000000209e-04 9.731550000000000367e+00 8.865439999999999543e+00 2.630370000000000097e+00 6.509759999999999991e+00 1.865339999999999998e+00 5.272630000000000372e+00 9.812010000000000787e+00 5.445820000000000327e+00 7.906699999999999839e+00 6.459489999999999732e+00 3.584140000000000104e+00 2.629539999999999988e+00 8.131190000000000140e+00 4.503429999999999822e+00 5.275640000000000107e+00 6.431770000000000209e+00 5.285280000000000200e+00 1.027999999999999921e-02 8.081379999999999342e+00 6.224339999999999762e+00 2.643069999999999808e+00 9.759800000000000253e+00 7.159790000000000099e+00 5.275920000000000165e+00 1.122291000000000061e+01 7.936390000000000278e+00 4.780000000000000394e-03 8.012990000000000279e+00 9.364999999999999991e-01 2.637420000000000098e+00 9.677149999999999253e+00 1.865660000000000096e+00 5.273830000000000240e+00 7.968849999999999767e+00 2.658529999999999838e+00 1.192000000000000004e-02 9.640100000000000335e+00 3.591959999999999820e+00 2.641550000000000065e+00 1.128922000000000025e+01 4.510259999999999714e+00 5.265690000000000204e+00 1.461037999999999926e+01 8.076280000000000570e+00 7.909709999999999575e+00 1.126138000000000083e+01 6.220740000000000158e+00 2.623310000000000031e+00 1.294370999999999938e+01 7.157359999999999722e+00 5.263289999999999580e+00
3.097789999999999822e+00 1.794170000000000043e+00 1.312149999999999928e+00 4.596829999999999750e+00 2.690859999999999808e+00 3.905569999999999986e+00 6.092329999999999579e+00 3.570269999999999833e+00 6.507780000000000342e+00 4.675600000000000200e+00 4.489720000000000155e+00 1.302340000000000053e+00 6.173359999999999737e+00 5.382340000000000124e+00 3.910239999999999938e+00 7.674970000000000070e+00 6.267299999999999649e+00 6.513620000000000410e+00 6.252950000000000230e+00 7.181759999999999700e+00 1.304400000000000004e+00 7.754590000000000316e+00 8.077040000000000219e+00 3.909299999999999997e+00 9.260329999999999728e+00 8.971999999999999531e+00 6.512809999999999988e+00 6.187310000000000088e+00 1.795570000000000110e+00 1.297789999999999999e+00 7.688200000000000145e+00 2.690020000000000078e+00 3.913450000000000095e+00 9.205159999999999343e+00 3.570230000000000015e+00 6.503680000000000128e+00 7.768989999999999618e+00 4.486110000000000042e+00 1.308449999999999891e+00 9.267599999999999838e+00 5.370499999999999829e+00 3.914800000000000058e+00 1.076708999999999961e+01 6.278159999999999741e+00 6.508860000000000312e+00 9.351119999999999877e+00 7.179070000000000285e+00 1.298850000000000060e+00 1.085552000000000028e+01 8.074659999999999727e+00 3.908520000000000216e+00 1.236092000000000013e+01 8.964209999999999567e+00 6.504319999999999879e+00 9.286699999999999733e+00 1.793940000000000090e+00 1.301379999999999981e+00 1.079532999999999987e+01 2.687679999999999847e+00 3.908949999999999925e+00 1.228903999999999996e+01 3.574720000000000120e+00 6.507139999999999702e+00 1.086982000000000070e+01 4.494819999999999816e+00 1.300110000000000099e+00 1.237079999999999913e+01 5.396499999999999631e+00 3.899439999999999795e+00 1.387804000000000038e+01 6.260799999999999699e+00 6.507670000000000066e+00 1.245496999999999943e+01 7.182080000000000020e+00 1.307460000000000067e+00 1.395905999999999914e+01 8.070270000000000721e+00 3.902660000000000018e+00 1.545270999999999972e+01 8.970869999999999678e+00 6.527059999999999640e+00 9.254509999999999792e+00 1.075913000000000075e+01 7.816320000000000157e+00 1.554107999999999912e+01 8.975459999999999994e+00 2.605690000000000062e+00 3.014159999999999950e+00 1.789230000000000098e+00 5.222690000000000055e+00 1.537848999999999933e+01 5.373920000000000030e+00 7.813010000000000232e+00 1.237016999999999989e+01 3.577179999999999804e+00 2.613309999999999800e+00 4.588180000000000369e+00 4.476549999999999585e+00 5.208639999999999937e+00 1.694975000000000165e+01 8.065749999999999531e+00 7.815279999999999561e+00 1.395669999999999966e+01 6.280979999999999563e+00 2.612389999999999990e+00 6.172030000000000349e+00 7.172570000000000334e+00 5.213530000000000442e+00 7.609510000000000218e+00 2.683139999999999858e+00 7.806700000000000195e+00 4.593899999999999650e+00 8.984299999999999509e-01 2.618030000000000079e+00 6.094409999999999883e+00 1.789090000000000069e+00 5.213510000000000311e+00 4.676739999999999675e+00 2.697010000000000129e+00 7.870000000000000259e-03 6.189350000000000129e+00 3.589179999999999815e+00 2.613410000000000011e+00 7.691810000000000258e+00 4.486959999999999837e+00 5.205390000000000406e+00 6.260760000000000325e+00 5.390729999999999578e+00 7.299999999999999632e-04 7.765349999999999753e+00 6.286120000000000374e+00 2.617490000000000094e+00 9.264609999999999346e+00 7.170390000000000263e+00 5.222480000000000011e+00 1.069417999999999935e+01 2.682760000000000034e+00 7.805559999999999832e+00 1.244013999999999953e+01 8.958690000000000708e+00 2.600620000000000154e+00 1.395675999999999917e+01 9.855050000000000310e+00 5.203500000000000014e+00 7.780680000000000263e+00 2.695819999999999883e+00 8.899999999999999491e-04 9.271240000000000592e+00 3.591349999999999820e+00 2.594300000000000050e+00 1.078278000000000070e+01 4.478699999999999903e+00 5.211090000000000444e+00 1.386417999999999928e+01 8.076919999999999433e+00 7.805270000000000152e+00 1.086652999999999913e+01 6.278229999999999755e+00 2.607759999999999856e+00 1.235638999999999932e+01 7.173989999999999867e+00 5.194359999999999644e+00