-4.963507297400000198e+02
-4.968631051500000240e+02
-4.957178901899999914e+02
-4.958496447900000135e+02
-4.952993772400000125e+02
-4.949499314799999752e+02
-4.951248995500000092e+02
-4.968500179800000183e+02
-4.961579636899999741e+02
-4.959230678800000192e+02
-4.961199016499999743e+02
-4.971145114600000170e+02
-4.954324079200000028e+02
-4.966219769799999995e+02
-4.966017670400000270e+02
-4.958952914100000271e+02
-4.961314081699999861e+02
-4.955137492299999735e+02
-4.959200941099999795e+02
-4.965919887900000163e+02
-4.961892524699999854e+02
-4.962663118500000223e+02
-4.971234005399999774e+02
-4.967818931099999986e+02
-4.956027507000000014e+02
-4.958394280699999968e+02
-4.962341263299999810e+02
-4.965048135600000023e+02
-4.965923199900000213e+02
-4.959079882400000088e+02
-4.962824671800000260e+02
-4.960587113999999929e+02
-4.964387575399999832e+02
-4.799780942699999855e+02
-4.803895133500000156e+02
-4.794798492099999976e+02
-4.799150923400000011e+02
-4.805358282000000258e+02
-4.802565609299999778e+02
-4.799237132999999744e+02
-4.801739914799999838e+02
-4.803026212999999984e+02
-4.806192162599999733e+02
-4.798393746799999917e+02
-4.806797787400000175e+02
-4.803231847600000037e+02
-4.802195315399999913e+02
-4.803920078900000021e+02
-4.801616047100000060e+02
-4.788075929299999984e+02
-4.799830511100000194e+02
-4.802685281500000087e+02
-4.799628692800000067e+02
-4.804011406999999849e+02
-4.803658717600000045e+02
-4.806993314900000200e+02
-4.792585968000000207e+02
-4.805809392900000034e+02
-4.803286974999999757e+02
-4.805926923600000009e+02
-4.802604659400000173e+02
-4.800390073500000199e+02
-4.804586892899999953e+02
-4.805499521699999832e+02
-4.804315446699999939e+02
-4.804800674100000037e+02
