9.100000136315718928e-05 6.399999845611366756e-05 4.999999949522836287e-05 1.000000065118975179e-06 1.199999921482566929e-05 -1.290000000725346617e-04 -3.570000035256364382e-04 -1.939999910663265910e-04 2.890000016418004425e-04 -2.000002247292907924e-06 -1.149999996215507648e-04 5.700000068468551997e-05 -4.999999996092859515e-05 2.000001005267253356e-06 -9.999999430347682270e-07 -3.099999968615828886e-05 1.300000084634657363e-05 3.699999996558342994e-05 -3.579999961880514416e-04 2.070000056272525331e-04 -2.720000007346920360e-04 -3.599999931513895852e-05 3.400000071620220985e-05 -2.000000152060883495e-06 -1.999991325093598087e-06 4.090000017778932834e-04 2.929999975774451879e-04 -9.799999849802813723e-05 7.100000226657900539e-05 4.799999971387765199e-05 -2.100000060163579528e-05 -2.899999964052553622e-05 -1.099999979912793876e-05 -6.000000313100502911e-06 -1.799999965925197130e-05 3.700000011499625390e-05 -1.700000037821947234e-05 -1.699999980443918108e-05 -2.499999987579210964e-05 -9.000000110755197627e-06 -4.999999859493456835e-06 -6.999999957962273107e-06 2.600000029774723786e-05 1.199999971137142289e-05 3.999999989305286441e-05 -6.999999696111443764e-06 1.699999996960199994e-05 -2.900000009117192627e-05 2.500000079148672667e-05 3.899999950626113331e-05 1.999999734323464945e-06 1.039999986345132633e-04 -6.500000232269431797e-05 -3.699999975771573065e-05 3.999991468461228707e-06 -4.030000017234635322e-04 -2.769999976157772547e-04 1.799999914466489704e-05 -4.100000047669806111e-05 -1.899999978165320654e-05 3.629999964555157281e-04 -1.950000056216349899e-04 2.900000006566513843e-04 1.699999955009669827e-05 -2.000000053949199601e-05 -3.299999990480352135e-05 5.900000001884741574e-05 9.999988008575715681e-07 -1.000000087143262447e-06 2.000002285411332797e-06 1.159999996986387833e-04 -4.400000069061536296e-05 3.640000036837220672e-04 2.009999909959171813e-04 -2.770000016929449489e-04 6.999999981787860640e-06 -8.999999435915686640e-06 1.190000000437331436e-04 -1.040000015557611016e-04 -7.399999815169346778e-05 -4.299999941803540361e-05 -1.299999986626785404e-05 6.000000316279876654e-06 8.999999982315393939e-06 -2.500000036958988439e-04 -1.559999972744447014e-04 -3.929999987308190708e-04 2.550000035138833758e-04 1.469999971733250118e-04 3.929999987773052147e-04 -2.360000082155792487e-04 -4.079999950729735450e-04 2.600000274423163205e-05 -3.079999961862514265e-04 1.800000069761349588e-04 1.259999993565889213e-04 -4.000005505888801613e-06 -2.959999978495872161e-04 3.490000017607410476e-04 2.540000088042971833e-04 4.349999948927678740e-04 4.999997070885496023e-06 -1.899999494126149131e-05 2.759999981309126365e-04 -3.800000016104846073e-04 3.089999955349557559e-04 -2.120000070141484340e-04 -1.289999991682102762e-04 -4.449999997457710450e-04 1.400000887512739705e-05 -2.099999947047601355e-05 -9.000007029990484962e-06 -3.569999989996654774e-04 1.380000021293442203e-04 -2.199999965931657042e-04 1.430000066670303511e-04 3.739999994548613965e-04 4.999999357492771246e-06 -4.000002520497674698e-06 -4.079999999831630960e-04 3.140000042540160735e-04 1.999999945510190621e-04 1.519999983818098616e-04 -2.330000032041711392e-04 -1.729999940188340019e-04 2.140000013465878507e-04 -2.449999917743615058e-04 4.070000049311463383e-04 -4.000002076205983316e-06 -2.799999974194883790e-04 1.440000042336103735e-04 -2.410000004684785307e-04 2.500000654006283453e-05 3.080000008345470637e-04 2.259999981391943463e-04 4.589999996714401649e-04 -1.400000947847437283e-05 -3.300000054879496654e-05 2.099999963803378486e-04 -1.540000064232820208e-04 -3.669999993758680992e-04 -2.299999244196343647e-05 3.809999998306568816e-04 -1.070000022276126108e-04 2.439999917945854027e-04 -4.060000049109223656e-04 4.000002071652634041e-06 -1.300000652809788907e-05 -3.070000011128133817e-04 -2.319999981616421934e-04 2.689999969387727092e-04 -1.660000041653230578e-04 2.150000006140766553e-04 2.800000079519268054e-05 1.400000163963305836e-05 3.719999998784401631e-04 2.840000027348909997e-04 1.499999929696234076e-04 -2.170000012804027749e-04 -3.410000035724374250e-04 -1.679999938567263839e-04 -1.269999985343995424e-04
-9.992700000000000193e-02 -9.581199999999999439e-02 -1.769599999999999992e-02 1.438709999999999989e-01 -9.403100000000000347e-02 -5.818299999999999861e-02 8.534999999999999531e-02 5.402400000000000257e-02 1.640189999999999981e-01 3.127599999999999825e-02 -5.859999999999999758e-03 -2.642999999999999863e-02 -2.893000000000000085e-02 3.611000000000000321e-02 2.744699999999999918e-02 8.693299999999999639e-02 -1.801799999999999929e-02 1.511000000000000017e-02 9.214600000000000568e-02 -2.386999999999999886e-02 1.620900000000000118e-02 1.392099999999999935e-02 8.482499999999999762e-02 4.078600000000000281e-02 8.418100000000000582e-02 -2.859400000000000136e-02 -6.375999999999999723e-03 -1.156599999999999989e-01 -5.841099999999999764e-02 -1.033229999999999982e-01 -5.808699999999999974e-02 3.891300000000000314e-02 -9.433500000000000218e-02 8.516600000000000559e-02 1.731870000000000076e-01 -1.410600000000000048e-02 -2.276600000000000151e-02 -6.977600000000000469e-02 3.871700000000000141e-02 -5.847900000000000320e-02 -1.310719999999999941e-01 -1.043540000000000023e-01 3.814000000000000116e-03 2.462599999999999859e-02 7.410300000000000220e-02 -7.369799999999999962e-02 1.129200000000000065e-01 1.106820000000000026e-01 1.104709999999999998e-01 8.458999999999999853e-02 -2.979499999999999857e-02 -2.761350000000000193e-01 -7.426499999999999768e-02 -7.992299999999999405e-02 7.466000000000000414e-02 5.532000000000000112e-02 -3.960500000000000131e-02 -9.377099999999999325e-02 -9.000500000000000167e-02 -1.140200000000000068e-02 -1.825720000000000121e-01 -3.241299999999999737e-02 1.883370000000000044e-01 -8.136500000000000676e-02 -1.665200000000000014e-01 8.222400000000000542e-02 7.846300000000000496e-02 1.361330000000000040e-01 -7.867799999999999794e-02 4.077399999999999775e-02 3.548199999999999965e-02 -1.103200000000000014e-02 -1.363320000000000087e-01 -8.727300000000000335e-02 1.177620000000000056e-01 2.059400000000000119e-02 1.485319999999999974e-01 -4.159199999999999703e-02 2.384500000000000161e-02 -2.415000000000000133e-02 -1.739570000000000005e-01 -3.210099999999999759e-02 -8.561000000000000554e-02 3.743999999999999932e-03 -5.680000000000000153e-03 4.015000000000000339e-03 -4.549700000000000272e-02 5.840700000000000058e-02 -1.246440000000000048e-01 5.097299999999999748e-02 1.437529999999999919e-01 2.771060000000000190e-01 1.288499999999999923e-01 3.467000000000000030e-03 5.970700000000000313e-02 -2.025100000000000164e-02 -1.534600000000000131e-01 -7.104499999999999704e-02 -2.359580000000000011e-01 -1.849979999999999958e-01 -8.476799999999999613e-02 -5.347299999999999970e-02 -1.388770000000000004e-01 7.106600000000000417e-02 1.301380000000000037e-01 1.245700000000000002e-01 1.327750000000000041e-01 1.777839999999999976e-01 2.065430000000000044e-01 -2.919100000000000167e-02 2.108900000000000011e-02 -7.004499999999999615e-02 -4.025700000000000112e-02 6.807000000000000550e-02 -1.410180000000000045e-01 -2.562199999999999894e-02 -1.709199999999999955e-02 -4.490500000000000047e-02 -6.408899999999999320e-02 1.028500000000000074e-02 1.056900000000000027e-02 -1.609100000000000114e-02 -7.564999999999999503e-02 2.451540000000000108e-01 -9.962699999999999334e-02 -1.061760000000000065e-01 -1.050559999999999966e-01 8.995000000000000218e-02 2.129320000000000102e-01 1.726260000000000017e-01 -6.179899999999999977e-02 -3.804000000000000090e-03 -2.183289999999999953e-01 5.324600000000000166e-02 -1.431060000000000110e-01 -1.695999999999999938e-02 -4.284000000000000308e-02 -2.047829999999999928e-01 1.770299999999999999e-02 3.643099999999999811e-02 -1.990400000000000155e-02 1.779350000000000098e-01 1.731020000000000059e-01 2.101010000000000100e-01 -1.285400000000000084e-02 4.880099999999999716e-02 5.299500000000000044e-02 -3.261300000000000310e-02 8.482499999999999762e-02 -3.826600000000000140e-02 -1.389350000000000029e-01 1.149270000000000014e-01 5.042699999999999960e-02 2.496919999999999973e-01 -3.150599999999999928e-02 -3.666099999999999914e-02 6.427000000000000421e-03 -7.371800000000000574e-02 4.221199999999999952e-02 1.312389999999999946e-01 -2.797350000000000114e-01 -1.435889999999999944e-01
-1.065340000000000037e-01 -6.886100000000000554e-02 -6.669700000000000628e-02 1.906819999999999904e-01 6.406299999999999495e-02 -3.150700000000000028e-02 -1.829709999999999948e-01 1.876589999999999925e-01 -1.283030000000000004e-01 8.534700000000000619e-02 1.164310000000000067e-01 -1.118969999999999965e-01 -3.287299999999999944e-02 -2.593300000000000119e-02 5.417399999999999993e-02 3.099000000000000019e-02 4.368799999999999767e-02 2.712600000000000081e-02 1.033700000000000070e-02 -1.725000000000000144e-02 2.675500000000000100e-02 -5.696500000000000175e-02 6.761000000000000343e-02 -1.663630000000000109e-01 -1.678199999999999831e-02 3.710000000000000103e-02 7.168800000000000172e-02 2.113999999999999907e-02 7.261299999999999699e-02 2.722300000000000067e-02 1.547290000000000054e-01 6.199500000000000149e-02 -1.513780000000000125e-01 -2.095500000000000140e-02 5.782199999999999840e-02 1.368999999999999991e-03 5.899399999999999783e-02 8.214000000000000815e-03 7.969000000000000389e-03 1.599279999999999868e-01 -6.653199999999999392e-02 -1.700180000000000025e-01 2.582000000000000094e-03 9.899999999999999404e-05 4.210499999999999660e-02 -1.371799999999999964e-01 -1.434080000000000077e-01 1.039039999999999964e-01 -1.591460000000000097e-01 1.993030000000000079e-01 -4.012099999999999694e-02 -6.782599999999999740e-02 -6.246299999999999769e-02 3.187399999999999956e-02 2.817100000000000160e-02 6.202099999999999974e-02 1.182000000000000108e-03 -1.848229999999999873e-01 5.781599999999999934e-02 -5.282400000000000290e-02 8.403499999999999859e-02 2.887699999999999989e-02 1.170200000000000060e-02 -2.139610000000000123e-01 -1.840500000000000122e-02 -6.523900000000000532e-02 3.853299999999999781e-02 -4.405099999999999988e-02 7.919900000000000551e-02 1.259579999999999866e-01 -1.237800000000000011e-01 9.888900000000000468e-02 2.126099999999999865e-02 -7.848700000000000121e-02 -1.545070000000000054e-01 5.087200000000000055e-02 -6.687000000000000235e-03 -7.646000000000000019e-03 2.302299999999999833e-02 -4.861999999999999655e-02 -9.313000000000000098e-03 -2.296600000000000030e-02 -1.535650000000000071e-01 1.347780000000000089e-01 -7.304800000000000182e-02 7.241599999999999426e-02 3.995400000000000340e-02 3.301799999999999874e-02 -3.648499999999999660e-02 -5.036999999999999811e-03 -6.840000000000000377e-04 3.475000000000000311e-02 4.706500000000000267e-02 -2.574900000000000105e-02 2.598000000000000049e-03 8.116600000000000203e-02 7.950999999999999734e-03 1.204979999999999940e-01 -1.798140000000000016e-01 5.820100000000000273e-02 8.616999999999999660e-02 1.071539999999999992e-01 -3.105700000000000127e-02 1.060770000000000046e-01 1.300100000000000040e-02 -3.717059999999999809e-01 3.966299999999999687e-02 1.337299999999999947e-02 3.258229999999999738e-01 -9.066899999999999959e-02 1.205190000000000011e-01 -8.048600000000000199e-02 -2.257909999999999917e-01 -1.422299999999999953e-02 -2.952600000000000016e-02 -4.076099999999999862e-02 -1.956999999999999972e-03 1.980700000000000169e-02 -4.340200000000000308e-02 -1.798599999999999852e-02 -1.425700000000000058e-02 4.830999999999999878e-02 2.652200000000000044e-02 1.326459999999999861e-01 -5.729000000000000065e-02 5.715900000000000147e-02 -9.953499999999999848e-02 -1.758300000000000141e-02 2.804500000000000048e-02 -6.202000000000000048e-03 -3.241499999999999937e-02 3.532699999999999729e-02 1.266410000000000036e-01 2.356400000000000161e-02 1.695999999999999938e-02 -1.292639999999999900e-01 -5.727800000000000252e-02 1.176969999999999961e-01 -3.869700000000000223e-02 -1.835060000000000024e-01 7.163999999999999535e-02 1.275249999999999995e-01 2.791899999999999937e-02 -4.067699999999999788e-02 1.599899999999999933e-02 1.305699999999999916e-02 5.433999999999999941e-02 6.691700000000000426e-02 -2.782700000000000104e-02 9.115399999999999892e-02 -1.934319999999999928e-01 1.911200000000000052e-02 -5.895399999999999946e-02 5.785499999999999671e-02 8.427999999999999381e-02 -1.497599999999999973e-02 -1.036899999999999974e-02 8.446199999999999541e-02 -8.806999999999999551e-02 2.480229999999999935e-01 -1.571400000000000019e-01 -6.350600000000000689e-02
7.050000000000000060e-04 3.513199999999999656e-02 4.073700000000000238e-02 4.831599999999999784e-02 2.062200000000000144e-02 -2.406099999999999905e-02 -3.596900000000000097e-02 1.024699999999999916e-02 -3.016200000000000131e-02 3.963300000000000156e-02 -1.582199999999999926e-02 1.584349999999999925e-01 -3.173399999999999832e-02 6.955799999999999483e-02 -2.059999999999999887e-01 -1.232550000000000034e-01 -7.605499999999999761e-02 1.034000000000000023e-02 -1.335399999999999955e-02 -1.626000000000000015e-02 2.328000000000000208e-03 5.161199999999999816e-02 -2.569400000000000156e-02 2.095299999999999940e-02 -8.438199999999999867e-02 -3.402399999999999869e-02 7.917999999999999691e-03 -2.826700000000000046e-02 4.693100000000000049e-02 6.752900000000000569e-02 -6.116699999999999915e-02 -1.584100000000000091e-02 -2.358100000000000127e-02 -2.803900000000000142e-02 1.093700000000000054e-02 2.873300000000000159e-02 -3.289999999999999869e-02 1.206400000000000007e-02 4.672199999999999964e-02 -3.642999999999999711e-02 9.282899999999999485e-02 4.018499999999999850e-02 1.699999999999999987e-05 -3.105799999999999880e-02 -4.852800000000000169e-02 -2.420800000000000035e-02 -1.294599999999999917e-02 2.524999999999999901e-03 -4.713000000000000175e-03 1.542600000000000048e-02 -3.104099999999999915e-02 -3.611700000000000327e-02 4.785799999999999776e-02 2.885100000000000164e-02 1.727899999999999922e-02 1.271680000000000033e-01 2.518899999999999958e-02 5.175300000000000039e-02 -6.573999999999999982e-03 -6.500699999999999534e-02 3.834499999999999714e-02 -2.169199999999999948e-02 4.592600000000000154e-02 -3.136499999999999705e-02 3.095399999999999888e-02 -1.028899999999999954e-01 3.111099999999999977e-02 -9.943999999999999714e-03 -2.676699999999999913e-02 3.184000000000000198e-03 -1.378429999999999933e-01 -4.933799999999999991e-02 5.063200000000000339e-02 -2.012239999999999862e-01 1.469200000000000020e-02 3.620500000000000107e-02 -8.482800000000000062e-02 3.932900000000000285e-02 5.298999999999999891e-03 -2.444899999999999851e-02 -5.929000000000000242e-03 1.115499999999999999e-02 1.124340000000000062e-01 -1.259820000000000106e-01 -1.767289999999999972e-01 3.710200000000000303e-02 1.887199999999999989e-02 3.100800000000000084e-02 2.987219999999999875e-01 1.059340000000000004e-01 -9.615300000000000236e-02 1.162300000000000000e-01 7.880299999999999805e-02 -1.453100000000000051e-02 -3.376000000000000095e-03 -3.403300000000000075e-02 -1.311110000000000053e-01 -6.882299999999999529e-02 2.178209999999999869e-01 2.346600000000000075e-02 -8.357499999999999651e-02 1.760000000000000063e-03 -8.325599999999999667e-02 3.508200000000000207e-02 -1.180900000000000005e-02 -3.726399999999999851e-02 -5.320000000000000076e-03 3.670899999999999858e-02 4.239699999999999719e-02 -5.494500000000000078e-02 -8.539599999999999969e-02 2.081300000000000164e-02 -7.759000000000000272e-03 1.573199999999999946e-02 -1.901800000000000018e-02 -1.275260000000000005e-01 1.660840000000000094e-01 -2.372300000000000103e-02 2.119939999999999880e-01 7.431899999999999618e-02 -1.796409999999999951e-01 -8.888699999999999379e-02 -1.424960000000000115e-01 -9.043500000000000150e-02 -6.234200000000000158e-02 3.949899999999999939e-02 2.078400000000000039e-02 -1.424040000000000028e-01 -1.367289999999999894e-01 2.010939999999999950e-01 3.034900000000000098e-02 1.141709999999999947e-01 8.324499999999999955e-02 -3.340200000000000113e-02 -2.989100000000000090e-02 1.081280000000000019e-01 -8.864800000000000457e-02 -1.529770000000000019e-01 2.426299999999999985e-02 -2.889000000000000075e-03 -5.387499999999999928e-02 7.655000000000000346e-03 3.011300000000000088e-02 -1.345280000000000087e-01 2.268459999999999921e-01 1.576450000000000073e-01 -1.708149999999999946e-01 2.401050000000000129e-01 -9.124000000000000166e-02 -1.675799999999999859e-02 1.566279999999999895e-01 1.330100000000000032e-02 -1.216099999999999993e-02 -1.669080000000000008e-01 -1.430599999999999927e-01 7.387699999999999823e-02 2.524399999999999908e-02 1.134949999999999987e-01 3.756299999999999917e-02 -6.250999999999999612e-03 4.225199999999999789e-02 1.592149999999999954e-01
-8.912000000000000477e-02 -1.379400000000000071e-02 -2.461069999999999924e-01 4.728199999999999764e-02 9.352499999999999702e-02 1.722190000000000110e-01 5.772399999999999753e-02 3.735000000000000039e-03 4.957899999999999807e-02 4.309299999999999936e-02 3.749600000000000155e-02 -2.233930000000000082e-01 1.245470000000000049e-01 5.533400000000000124e-02 -3.996299999999999852e-02 3.886200000000000071e-02 -7.794399999999999940e-02 9.511999999999999622e-03 4.557900000000000146e-02 1.481000000000000025e-02 6.675200000000000577e-02 -1.427559999999999940e-01 2.124300000000000146e-02 -2.904899999999999843e-02 -4.258499999999999786e-02 -7.323999999999999955e-02 -8.219899999999999429e-02 -5.058200000000000196e-02 1.437899999999999942e-02 -1.548769999999999869e-01 -4.204100000000000198e-02 8.290300000000000447e-02 1.022129999999999983e-01 -1.559119999999999950e-01 -1.300459999999999949e-01 2.221920000000000006e-01 8.629000000000000559e-02 -2.114200000000000107e-02 1.634279999999999899e-01 -1.601569999999999938e-01 1.537689999999999890e-01 -1.142849999999999977e-01 -5.555800000000000322e-02 8.907999999999999252e-03 -7.323300000000000642e-02 2.314000000000000085e-03 1.057529999999999998e-01 -1.044140000000000068e-01 4.998999999999999971e-03 -8.400100000000000622e-02 6.643899999999999806e-02 2.193200000000000011e-02 1.995069999999999899e-01 -1.527429999999999899e-01 2.400450000000000084e-01 -4.190000000000000148e-03 -4.872800000000000048e-02 1.416999999999999926e-01 -1.534669999999999923e-01 1.203349999999999975e-01 2.826199999999999893e-02 -1.814699999999999994e-02 -2.925200000000000022e-02 -1.446020000000000083e-01 4.189899999999999874e-02 -1.403530000000000055e-01 -3.636500000000000149e-02 -8.160999999999999852e-03 1.621819999999999928e-01 1.181880000000000014e-01 -1.419300000000000075e-02 5.379599999999999660e-02 -5.373599999999999904e-02 1.542900000000000001e-02 -2.330399999999999833e-02 1.062600000000000003e-02 -1.543300000000000054e-02 1.842530000000000001e-01 -1.166200000000000014e-01 1.136029999999999957e-01 1.525999999999999926e-02 -1.013040000000000052e-01 -8.238299999999999790e-02 3.432500000000000134e-02 -7.721400000000000485e-02 1.920199999999999962e-01 -1.613009999999999999e-01 3.937100000000000322e-02 1.539030000000000120e-01 1.130840000000000040e-01 2.399999999999999790e-03 -1.468079999999999941e-01 1.326600000000000001e-02 2.116169999999999995e-01 -3.740600000000000175e-02 6.376500000000000223e-02 -1.695619999999999905e-01 8.387799999999999423e-02 -1.079660000000000064e-01 4.067000000000000060e-01 1.079449999999999993e-01 9.256599999999999551e-02 -1.794270000000000032e-01 -4.141899999999999749e-02 -1.787950000000000095e-01 3.379000000000000059e-02 -2.248219999999999941e-01 -1.927500000000000047e-02 1.072840000000000044e-01 1.476300000000000008e-02 2.344219999999999915e-01 -1.150010000000000060e-01 2.764320000000000110e-01 4.132799999999999668e-02 -4.629899999999999988e-02 -2.414499999999999980e-02 -1.860999999999999877e-01 9.553399999999999392e-02 5.739299999999999957e-02 6.521799999999999820e-02 -3.468999999999999861e-03 -2.531599999999999961e-01 1.162969999999999976e-01 4.359799999999999787e-02 -1.259899999999999909e-01 -1.596950000000000036e-01 -1.882900000000000129e-01 -3.230399999999999938e-02 9.032800000000000551e-02 6.588299999999999712e-02 -1.392450000000000077e-01 -1.498309999999999920e-01 4.660000000000000253e-02 4.986299999999999760e-02 1.714660000000000073e-01 1.988910000000000122e-01 -5.074399999999999744e-02 -1.342359999999999942e-01 -1.327079999999999926e-01 -6.383999999999999397e-02 4.471200000000000174e-02 2.116799999999999932e-02 2.038290000000000102e-01 -1.570719999999999894e-01 -1.738200000000000023e-01 4.428699999999999998e-02 -7.534000000000000419e-02 -8.044999999999999374e-02 1.500499999999999924e-02 4.453900000000000220e-02 8.876000000000000556e-02 -1.399599999999999976e-02 3.279100000000000070e-02 -1.859840000000000104e-01 -2.030359999999999943e-01 1.732750000000000123e-01 2.924160000000000093e-01 3.500000000000000333e-02 2.030300000000000160e-02 -1.218909999999999993e-01 -1.435549999999999882e-01 5.166699999999999765e-02
-1.197929999999999967e-01 -1.217619999999999952e-01 -6.884899999999999354e-02 -6.545299999999999729e-02 4.795499999999999763e-02 2.481600000000000125e-02 -2.224200000000000135e-02 7.977900000000000269e-02 3.192199999999999899e-02 1.625300000000000009e-02 1.545799999999999952e-02 3.321799999999999753e-02 1.807989999999999875e-01 -1.035500000000000032e-01 1.092339999999999978e-01 -9.490300000000000125e-02 -5.439100000000000185e-02 1.325499999999999942e-02 -1.686899999999999858e-02 8.720700000000000673e-02 6.116300000000000209e-02 3.422399999999999748e-02 3.352399999999999824e-02 -8.082100000000000395e-02 1.030309999999999976e-01 -3.293800000000000200e-02 -9.053300000000000236e-02 -3.504600000000000076e-02 -8.810099999999999876e-02 -1.945799999999999960e-02 -2.714999999999999965e-03 9.105100000000000693e-02 4.535999999999999754e-02 -1.134140000000000009e-01 6.687000000000000235e-03 1.213459999999999955e-01 1.238000000000000038e-02 -6.143000000000000023e-03 2.665999999999999967e-02 -1.256629999999999969e-01 1.126749999999999974e-01 1.352309999999999901e-01 2.285189999999999999e-01 1.679999999999999896e-02 -9.067400000000000460e-02 1.192359999999999948e-01 2.311099999999999960e-02 -2.180500000000000146e-02 1.133400000000000032e-02 -8.578000000000000555e-03 1.617700000000000041e-02 -7.164199999999999735e-02 -1.618120000000000114e-01 -5.745900000000000313e-02 4.793399999999999744e-02 2.624299999999999897e-02 -6.650499999999999468e-02 1.329980000000000051e-01 -1.342399999999999982e-01 -1.469519999999999993e-01 -3.825800000000000034e-02 3.661899999999999877e-02 -1.122399999999999960e-02 -6.432000000000000217e-02 5.426000000000000267e-03 2.088699999999999932e-02 4.986700000000000160e-02 -2.303200000000000039e-02 -6.597000000000000433e-03 3.291600000000000081e-02 -7.075800000000000145e-02 -5.033300000000000274e-02 -3.845200000000000007e-02 7.566699999999999815e-02 -2.402610000000000023e-01 6.196000000000000119e-03 -9.849999999999999381e-03 -2.114100000000000007e-02 1.959500000000000131e-02 6.734999999999999667e-03 2.030399999999999913e-02 -1.073830000000000062e-01 -5.009399999999999964e-02 -3.619399999999999701e-02 -1.069169999999999981e-01 7.259500000000000675e-02 7.066999999999999671e-02 1.972019999999999884e-01 8.546199999999999630e-02 2.067809999999999926e-01 3.419150000000000245e-01 -1.695929999999999938e-01 -5.861399999999999944e-02 8.987199999999999356e-02 -6.289400000000000546e-02 -4.537000000000000061e-02 -7.572900000000000464e-02 -1.144690000000000013e-01 1.985500000000000112e-02 2.323969999999999925e-01 -1.360010000000000108e-01 2.928899999999999906e-02 -7.989300000000000568e-02 8.971300000000000108e-02 -4.113399999999999695e-02 -1.275080000000000102e-01 -7.295000000000000269e-03 -4.518900000000000000e-02 1.032570000000000016e-01 -2.935499999999999915e-02 -5.514999999999999937e-03 -1.029029999999999945e-01 9.747200000000000308e-02 7.544700000000000017e-02 -3.632699999999999818e-02 -8.283400000000000485e-02 4.678999999999999999e-03 -8.577799999999999314e-02 1.611100000000000032e-02 1.706600000000000131e-02 3.586500000000000105e-02 -1.325089999999999879e-01 1.285810000000000008e-01 3.878199999999999703e-02 8.895500000000000629e-02 -1.621699999999999878e-02 -1.622699999999999976e-01 1.515289999999999970e-01 -2.136500000000000066e-01 1.740400000000000003e-01 2.221000000000000058e-02 -9.994400000000000506e-02 1.204759999999999998e-01 2.210499999999999965e-02 1.095499999999999946e-02 -4.724300000000000027e-02 1.439400000000000124e-01 -1.099129999999999968e-01 -2.623500000000000137e-02 -2.914500000000000077e-02 5.536100000000000049e-02 -3.905100000000000238e-02 -3.897899999999999976e-02 2.112400000000000042e-02 -1.527600000000000069e-01 -2.528009999999999979e-01 -1.673030000000000073e-01 -1.371320000000000039e-01 -1.909339999999999926e-01 4.440399999999999903e-02 1.943280000000000007e-01 9.338699999999999779e-02 1.488240000000000118e-01 -1.686799999999999966e-01 3.758460000000000134e-01 -2.468499999999999861e-02 -9.528000000000000011e-03 1.338769999999999960e-01 2.123710000000000042e-01 -2.493080000000000018e-01 5.391800000000000065e-02 1.313640000000000085e-01
-1.029230000000000006e-01 6.820999999999999806e-03 -1.449000000000000010e-01 -6.314100000000000268e-02 -5.953200000000000158e-02 7.126399999999999402e-02 5.488200000000000023e-02 9.834400000000000086e-02 9.193800000000000583e-02 -3.786500000000000282e-02 -3.075800000000000062e-02 -1.458199999999999948e-02 4.970100000000000212e-02 4.530000000000000172e-03 3.539699999999999791e-02 1.482999999999999943e-02 7.614799999999999347e-02 2.719099999999999989e-02 6.467699999999999838e-02 3.953799999999999676e-02 -4.462499999999999800e-02 6.591199999999999837e-02 -2.515799999999999981e-02 6.814699999999999924e-02 -3.094600000000000128e-02 -6.673999999999999377e-02 1.770100000000000146e-02 3.746200000000000224e-02 -3.806600000000000261e-02 6.011199999999999877e-02 6.587500000000000300e-02 -9.390600000000000336e-02 -7.595499999999999474e-02 -1.413760000000000017e-01 1.091619999999999951e-01 8.738500000000000434e-02 2.142499999999999960e-02 3.717700000000000171e-02 -1.046170000000000017e-01 5.048199999999999910e-02 1.409990000000000132e-01 -6.088199999999999862e-02 1.186949999999999950e-01 -6.498400000000000010e-02 5.729800000000000171e-02 -1.375900000000000040e-02 6.903299999999999714e-02 4.077499999999999875e-02 -4.398699999999999832e-02 -8.153000000000000524e-03 -2.099200000000000024e-02 -1.639600000000000085e-02 2.984500000000000000e-02 5.478299999999999836e-02 -1.790500000000000078e-02 6.805000000000000285e-03 -3.110500000000000070e-02 -4.509799999999999920e-02 -3.266299999999999759e-02 -3.066500000000000128e-02 3.541099999999999803e-02 5.794400000000000245e-02 6.640600000000000669e-02 -4.266899999999999860e-02 -9.382699999999999374e-02 -5.882000000000000076e-03 -1.613000000000000067e-03 -2.249500000000000111e-01 1.127200000000000008e-01 -7.085199999999999831e-02 1.299909999999999954e-01 3.335099999999999870e-02 -9.739699999999999747e-02 2.186899999999999955e-02 -8.283600000000000685e-02 -4.312699999999999867e-02 7.104000000000000592e-02 7.258199999999999374e-02 4.145800000000000179e-02 -8.082699999999999607e-02 -1.931839999999999946e-01 2.003900000000000126e-02 -1.772100000000000064e-02 8.200799999999999756e-02 1.726000000000000104e-03 -4.238999999999999713e-03 -2.718800000000000036e-02 -1.590399999999999869e-01 -4.268399999999999972e-02 -1.415790000000000104e-01 2.565999999999999878e-02 -5.421600000000000030e-02 4.284099999999999714e-02 7.211499999999999855e-02 1.818839999999999901e-01 -1.354670000000000041e-01 5.249999999999999676e-04 1.133770000000000056e-01 2.607500000000000095e-02 2.290580000000000116e-01 -5.910999999999999588e-03 1.939970000000000028e-01 8.011000000000000065e-02 -8.382299999999999474e-02 -1.959049999999999958e-01 -6.783699999999999453e-02 -3.743099999999999900e-02 -4.634200000000000125e-02 -5.820499999999999979e-02 -1.096300000000000052e-01 1.269500000000000073e-01 1.025670000000000054e-01 -1.395609999999999906e-01 -1.854210000000000025e-01 2.399159999999999904e-01 -3.704899999999999860e-02 -3.926199999999999829e-02 6.900799999999999990e-02 3.590999999999999748e-02 2.762000000000000132e-03 -1.078270000000000062e-01 -2.989800000000000096e-02 -1.385369999999999935e-01 -4.597400000000000098e-02 -2.249369999999999981e-01 4.620300000000000101e-02 -1.513300000000000062e-02 -2.462000000000000213e-03 7.734699999999999909e-02 -1.593999999999999931e-02 7.368000000000000417e-03 -2.255939999999999890e-01 1.413799999999999953e-02 5.469199999999999756e-02 -9.975699999999999845e-02 1.062789999999999985e-01 -3.403899999999999981e-02 2.260399999999999909e-01 -1.188099999999999920e-02 2.853749999999999898e-01 -1.459999999999999981e-04 -1.999279999999999946e-01 2.292760000000000076e-01 -4.417299999999999699e-02 -9.664200000000000568e-02 1.856700000000000017e-02 -4.509200000000000014e-02 1.031760000000000038e-01 -9.748900000000000621e-02 1.624760000000000093e-01 -3.564500000000000307e-02 -1.629299999999999846e-02 -2.165299999999999864e-02 -3.968200000000000199e-02 -1.172460000000000030e-01 1.606760000000000133e-01 -1.639299999999999924e-01 5.824100000000000110e-02 -1.419150000000000134e-01 1.015920000000000017e-01 -9.742999999999999924e-03 2.538279999999999981e-01