-4.247889552299999991e+02
-4.247017487100000039e+02
-4.246919525600000043e+02
-4.246560526999999752e+02
-4.246858209100000181e+02
-4.246793418199999905e+02
-4.246638628000000040e+02
-4.246590399400000138e+02
-4.246593368499999883e+02
-4.246368422599999803e+02
