-1.021400000000000086e-02 1.501820000000000099e-01 2.650629999999999931e-01 -2.559790000000000121e-01 2.795440000000000147e-01 -2.555870000000000086e-01 -1.493510000000000115e-01 -6.249199999999999894e-02 4.133580000000000032e-01 -4.309899999999999842e-01 -1.969220000000000137e-01 -1.943030000000000035e-01 2.546700000000000075e-01 -2.749999999999999840e-03 -1.674900000000000000e-01 2.447910000000000086e-01 -2.900490000000000013e-01 -2.302710000000000035e-01 7.609100000000000585e-02 -8.587500000000000688e-02 7.696000000000000063e-02 7.577599999999999614e-02 3.377711000000000130e+00 -1.156922999999999924e+00 9.449000000000000801e-03 -1.267979999999999940e-01 -1.275979999999999892e-01 2.989615000000000133e+00 -1.752577000000000051e+00 2.450387999999999789e+00 -2.990400000000000003e-02 -8.774999999999999814e-03 -3.699818000000000051e+00 7.724300000000000610e-02 6.118200000000000027e-02 -1.514870000000000105e-01 2.980548999999999893e+00 -1.706657000000000091e+00 2.428602000000000150e+00 2.611600000000000033e-02 -3.524592999999999865e+00 -2.407820000000000071e+00 7.109899999999999554e-02 -1.125400000000000011e-02 -1.253450000000000120e-01 6.832599999999999785e-02 3.382013999999999854e+00 -1.144754000000000049e+00 7.537000000000000297e-03 3.420815000000000161e+00 -1.204820000000000002e+00 6.226099999999999690e-02 -7.592999999999999750e-02 -8.574900000000000577e-02 -3.038372999999999990e+00 1.728164999999999951e+00 1.212990999999999930e+00 -3.013023000000000007e+00 1.766745000000000010e+00 -2.469726000000000088e+00 1.884100000000000011e-02 7.917100000000000526e-02 3.575400000000000134e+00 -2.970381999999999856e+00 -1.794567000000000023e+00 2.485440000000000094e+00 -3.002593000000000067e+00 -1.780132000000000048e+00 -1.209330000000000016e+00 -2.531100000000000017e-02 -2.010800000000000087e-02 3.627431000000000072e+00 -1.360609999999999875e-01 -4.278400000000000258e-02 1.100160000000000027e-01 -6.079799999999999788e-02 -4.882000000000000055e-03 1.152159999999999990e-01 -7.422900000000000331e-02 4.997999999999999839e-03 -4.722300000000000109e-02 -6.740699999999999470e-02 1.446959999999999913e-01 8.471700000000000064e-02 2.951582000000000150e+00 -1.614047000000000009e+00 -1.213735999999999926e+00 -1.427849999999999953e-01 1.093540000000000068e-01 -1.260960000000000136e-01 -7.004499999999999615e-02 7.023300000000000376e-02 1.051369999999999943e-01 2.943328000000000166e+00 -1.734053000000000067e+00 -1.220328999999999997e+00 -7.993000000000000105e-02 5.834000000000000297e-02 -6.957099999999999396e-02 -3.370750000000000135e-01 2.409899999999999889e-02 2.888200000000000212e-01 -2.952330000000000232e-01 -6.939399999999999735e-02 5.037519999999999776e-01 -3.243900000000000117e-01 2.924720000000000097e-01 -6.570000000000000319e-03 -2.440529999999999922e-01 5.345210000000000239e-01 -3.384329999999999838e-01 -1.724499999999999991e-02 4.216449999999999920e-01 2.751560000000000117e-01 7.328500000000000292e-02 -1.973499999999999907e-02 -1.316499999999999962e-02 7.424799999999999456e-02 -2.133740000000000081e-01 -3.828440000000000176e-01 3.264040000000000274e-01 -1.956170000000000131e-01 2.690339999999999954e-01 -9.523000000000000215e-03 -2.583699999999999886e-01 6.864299999999999569e-02 2.436689999999999967e-01 -3.805310000000000081e-01 -3.762559999999999794e-01 3.533229999999999982e-01 -2.260389999999999899e-01 2.962750000000000106e-01 1.111100000000000004e-01 1.779880000000000073e-01 -1.271039999999999948e-01 3.377640000000000087e-01 2.166740000000000055e-01 -3.045599999999999974e-01 1.814899999999999847e-02 2.452700000000000019e-02 2.438000000000000063e-03 1.162400000000000065e-02 -2.265530000000000044e-01 8.721399999999999986e-02 2.020100000000000021e-02 1.091499999999999936e-02 7.352699999999999514e-02 2.385629999999999973e-01 -1.280330000000000079e-01 1.913590000000000013e-01 -2.330199999999999980e-02 -2.504210000000000047e-01 9.113899999999999779e-02 2.225590000000000068e-01 7.382199999999999873e-02 1.101869999999999933e-01 -8.313299999999999856e-02 1.531830000000000136e-01 -4.005429999999999824e-01 3.157000000000000084e-03 2.403160000000000018e-01 4.918800000000000255e-02
3.097000000000000100e-02 1.591529999999999889e-01 2.776930000000000232e-01 -2.964060000000000028e-01 1.269500000000000073e-01 -1.659889999999999977e-01 -1.975609999999999866e-01 -4.303300000000000181e-02 2.422719999999999874e-01 -3.157139999999999946e-01 -8.052600000000000036e-02 -1.083149999999999946e-01 2.712049999999999739e-01 -1.260870000000000046e-01 5.204600000000000198e-02 4.938599999999999934e-02 1.047809999999999991e-01 -5.732700000000000295e-02 1.146380000000000038e-01 -3.231400000000000244e-02 2.829800000000000024e-02 2.194899999999999976e-02 3.457815999999999779e+00 2.462102999999999930e+00 -2.963642000000000110e+00 -1.745576999999999934e+00 -1.249403999999999959e+00 2.994991999999999877e+00 -1.834006999999999943e+00 2.447293999999999858e+00 -4.381000000000000345e-03 -3.462181000000000175e+00 -2.435543000000000013e+00 1.062189999999999940e-01 4.084800000000000236e-02 -8.537899999999999656e-02 2.966260999999999814e+00 -1.729519999999999946e+00 -1.229168999999999956e+00 3.038532000000000011e+00 -1.740661000000000014e+00 -1.168069999999999942e+00 1.826900000000000052e-02 3.384348999999999830e+00 -1.300994999999999902e+00 1.400299999999999982e-02 3.398772999999999822e+00 -1.212271000000000098e+00 3.410500000000000337e-02 3.423176999999999914e+00 -1.242464000000000013e+00 8.927200000000000413e-02 -1.364899999999999967e-02 -4.173700000000000326e-02 -3.064512000000000125e+00 1.742056000000000049e+00 1.228636000000000061e+00 -3.035937000000000108e+00 1.785811000000000037e+00 -2.456757000000000080e+00 -2.822300000000000156e-02 1.650000000000000078e-02 3.613541000000000114e+00 -3.006634000000000029e+00 -1.771852999999999900e+00 2.499557999999999947e+00 -2.986054999999999904e+00 -1.810373999999999928e+00 -1.233994999999999953e+00 1.356699999999999920e-02 -3.547199999999999659e-02 3.641286000000000023e+00 -1.192099999999999965e-01 2.555999999999999939e-02 6.150699999999999917e-02 -3.200999999999999679e-02 7.388699999999999435e-02 8.504100000000000548e-02 2.900100000000000122e+00 -1.683778999999999915e+00 -1.199179999999999913e+00 -3.945300000000000196e-02 1.373199999999999976e-01 7.972999999999999532e-02 2.946898000000000017e+00 -1.621421999999999919e+00 -1.213106000000000018e+00 -1.310520000000000018e-01 1.021159999999999984e-01 -3.124000000000000041e-02 -1.011179999999999995e-01 1.246500000000000039e-02 5.271699999999999997e-02 -1.002439999999999998e-01 -1.272200000000000067e-02 5.020299999999999763e-02 -4.285699999999999926e-02 6.351999999999999313e-02 2.394299999999999901e-02 -3.227610000000000201e-01 1.216700000000000073e-02 2.581399999999999806e-01 -1.901349999999999985e-01 1.573839999999999961e-01 3.468339999999999756e-01 -3.052139999999999853e-01 2.651240000000000263e-01 -1.313600000000000011e-02 -1.403969999999999940e-01 4.644710000000000227e-01 -7.290800000000000058e-02 -1.525070000000000037e-01 2.136490000000000056e-01 1.374070000000000014e-01 8.514900000000000246e-02 -5.438300000000000078e-02 -4.221699999999999758e-02 1.021299999999999986e-01 -2.324640000000000040e-01 -3.789219999999999811e-01 4.696870000000000211e-01 -1.891069999999999973e-01 1.543160000000000087e-01 1.497799999999999999e-02 -2.551470000000000127e-01 4.379199999999999759e-02 1.552080000000000126e-01 -2.072599999999999998e-01 -2.727049999999999752e-01 1.333380000000000121e-01 -1.139030000000000042e-01 2.458660000000000012e-01 2.932690000000000019e-01 7.677000000000000490e-02 -1.033349999999999963e-01 1.254220000000000057e-01 2.181220000000000103e-01 -1.726999999999999924e-01 1.192069999999999935e-01 -1.442380000000000051e-01 -1.125170000000000059e-01 -4.104200000000000209e-02 -2.097449999999999870e-01 1.092629999999999990e-01 -1.378520000000000023e-01 -2.341940000000000133e-01 -7.474799999999999500e-02 3.156709999999999794e-01 1.846959999999999991e-01 5.637400000000000050e-02 2.075980000000000047e-01 -2.688789999999999791e-01 -3.081789999999999807e-01 8.443299999999999417e-02 5.869800000000000018e-02 -8.584700000000000664e-02 1.737199999999999855e-02 -1.505340000000000011e-01 -7.175800000000000234e-02 2.108700000000000158e-02 9.686799999999999577e-02 -5.795000000000000151e-02
-1.748600000000000154e-02 1.460559999999999914e-01 7.152200000000000224e-02 -1.875900000000000137e-02 2.148000000000000170e-03 -1.220070000000000043e-01 1.130500000000000081e-02 -1.092290000000000066e-01 6.806299999999999850e-02 -1.349309999999999954e-01 1.258199999999999943e-02 -1.125970000000000026e-01 -9.577199999999999602e-02 -9.167100000000000248e-02 7.284400000000000597e-02 -1.326670000000000071e-01 -4.300799999999999762e-02 1.715359999999999940e-01 -4.664499999999999896e-02 -3.306599999999999817e-02 9.549799999999999955e-02 -3.258599999999999691e-02 -4.436999999999999972e-03 8.766100000000000281e-02 -9.727800000000000336e-02 -6.568300000000000527e-02 -4.035500000000000198e-02 2.888799000000000117e+00 -1.636177999999999910e+00 -1.190325999999999995e+00 2.922226000000000212e+00 -1.630285999999999902e+00 -1.148954000000000031e+00 -3.412899999999999961e-02 1.308519999999999961e-01 -3.888300000000000090e-02 2.917415999999999787e+00 -1.667945000000000011e+00 -1.224725000000000064e+00 -5.302899999999999975e-02 3.894399999999999945e-02 4.611799999999999927e-02 -2.896500000000000116e-02 3.054700000000000124e-02 -1.088100000000000005e-02 6.688700000000000201e-02 3.376615000000000144e+00 -1.192352999999999996e+00 1.812000000000000026e-03 3.313702000000000147e+00 -1.239692999999999934e+00 7.855800000000000283e-02 -1.043749999999999956e-01 -5.295699999999999713e-02 -3.080865999999999882e+00 1.766820000000000057e+00 1.275085000000000024e+00 1.584800000000000098e-02 -3.488398000000000110e+00 -2.523820999999999870e+00 4.668699999999999933e-02 4.189299999999999968e-02 3.574003999999999959e+00 -2.933373000000000008e+00 -1.742404999999999982e+00 -1.180482999999999949e+00 3.036792000000000158e+00 -1.749479000000000006e+00 -1.232085000000000097e+00 3.039555000000000007e+00 -1.812774000000000107e+00 2.460878999999999817e+00 -3.999799999999999883e-02 -9.101900000000000268e-02 4.828799999999999759e-02 2.859700000000000089e-02 3.400970000000000049e+00 -1.195295999999999914e+00 5.700000000000000314e-05 -2.768100000000000074e-02 -1.749300000000000160e-02 1.953000000000000092e-03 4.678600000000000120e-02 3.640534000000000159e+00 -3.112586999999999993e+00 1.846027000000000085e+00 -2.484188000000000063e+00 -1.363200000000000002e-02 3.477015000000000189e+00 -1.270413000000000014e+00 4.216000000000000129e-03 4.727800000000000058e-02 3.718621999999999872e+00 -3.130549999999999944e+00 -1.808869000000000060e+00 2.537523999999999891e+00 -2.973425000000000207e+00 -1.766866000000000048e+00 -1.268591999999999942e+00 -8.346299999999999553e-02 -2.825360000000000094e-01 2.799920000000000186e-01 -1.339909999999999990e-01 -2.527510000000000034e-01 -2.957339999999999969e-01 1.558329999999999993e-01 -2.056989999999999930e-01 3.205359999999999876e-01 -2.969200000000000172e-01 1.393880000000000119e-01 -2.416449999999999987e-01 9.281000000000000361e-02 3.898989999999999956e-01 -1.819060000000000121e-01 2.194760000000000044e-01 3.507549999999999835e-01 1.065870000000000012e-01 -1.354799999999999928e-02 1.101450000000000068e-01 1.563930000000000042e-01 -1.869790000000000063e-01 1.521609999999999907e-01 2.050250000000000128e-01 -3.710289999999999977e-01 -2.201519999999999866e-01 2.437380000000000102e-01 7.390299999999999647e-02 3.355000000000000204e-01 6.099799999999999667e-02 -1.785859999999999947e-01 4.826340000000000074e-01 -1.328670000000000129e-01 -2.649320000000000008e-01 2.836099999999999732e-01 -6.071499999999999814e-02 1.796860000000000124e-01 -2.003070000000000128e-01 8.733799999999999897e-02 2.951929999999999832e-01 -2.425009999999999943e-01 -3.365779999999999883e-01 2.957659999999999734e-01 2.658900000000000152e-02 -7.441699999999999704e-02 3.874219999999999886e-01 -2.785630000000000051e-01 2.456799999999999956e-02 3.797840000000000105e-01 -3.751050000000000217e-01 -6.345699999999999952e-02 -4.177100000000000257e-02 -2.301930000000000087e-01 -9.701500000000000401e-02 2.285159999999999969e-01 3.072099999999999831e-02 -8.921400000000000163e-02 1.217690000000000022e-01 1.584359999999999935e-01 -1.909669999999999979e-01 5.703099999999999836e-02 2.310500000000000054e-02 -4.273600000000000315e-02
-3.632400000000000212e-02 1.445839999999999903e-01 9.306999999999999995e-02 1.030139999999999945e-01 -2.470699999999999980e-02 -1.577790000000000026e-01 -1.137979999999999964e-01 -1.119010000000000005e-01 1.355560000000000098e-01 -2.653849999999999820e-01 -1.877610000000000112e-01 -1.106280000000000041e-01 5.868099999999999705e-02 3.013009999999999855e-01 -9.298199999999999521e-02 4.877100000000000185e-02 -2.322999999999999978e-03 -2.556000000000000112e-03 -4.035199999999999898e-02 -2.336999999999999841e-02 5.090000000000000080e-02 2.064500000000000016e-02 4.099000000000000213e-03 6.755700000000000593e-02 -2.320799999999999946e-02 -3.465399999999999731e-02 -4.906599999999999850e-02 2.942346999999999824e+00 -1.678326999999999902e+00 -1.176020999999999983e+00 2.997368999999999950e+00 -1.720016999999999907e+00 -1.158997000000000055e+00 -6.216499999999999804e-02 3.454044999999999810e+00 -1.281061000000000005e+00 2.961517999999999873e+00 -1.662797000000000081e+00 -1.202582000000000040e+00 -3.599800000000000222e-02 -3.004199999999999926e-02 3.656457000000000068e+00 -2.955080999999999847e+00 -1.687125999999999904e+00 -1.249816999999999956e+00 3.440300000000000302e-02 3.450375999999999888e+00 -1.189956000000000014e+00 3.011525999999999925e+00 1.721864999999999979e+00 -2.477911999999999892e+00 2.012900000000000106e-02 -6.070899999999999908e-02 -8.019999999999999352e-02 -3.078943000000000207e+00 1.787635000000000085e+00 1.247516000000000069e+00 -3.606999999999999963e-03 -3.457126999999999839e+00 -2.508287000000000155e+00 7.860100000000000420e-02 3.132100000000000162e-02 3.593193999999999999e+00 -3.004198999999999842e+00 -1.753244999999999942e+00 -1.212968000000000046e+00 7.632700000000000595e-02 -2.682899999999999868e-02 5.743199999999999694e-02 2.115799999999999972e-02 -2.677300000000000166e-02 3.613337000000000021e+00 -3.377299999999999747e-02 -3.113499999999999948e-02 3.668407000000000195e+00 -3.045062999999999853e+00 1.735527000000000042e+00 -2.474877000000000216e+00 5.899999999999999863e-03 1.722500000000000073e-02 -1.010199999999999987e-02 -3.501400000000000345e-02 5.537299999999999861e-02 3.624509999999999899e+00 -3.028042000000000122e+00 -1.660660000000000025e+00 -1.212210000000000010e+00 -4.938900000000000234e-02 7.073300000000000420e-02 -3.005899999999999891e-02 3.802099999999999924e-02 -1.933000000000000039e-03 6.301800000000000457e-02 -6.118799999999999933e-02 3.461081000000000074e+00 -1.204509000000000052e+00 2.910060999999999787e+00 -1.758571000000000106e+00 -1.233039999999999914e+00 -4.623999999999999638e-03 -1.321789999999999909e-01 1.359740000000000115e-01 -1.227840000000000042e-01 -1.651390000000000080e-01 -4.879999999999999898e-04 -2.020210000000000061e-01 -1.182480000000000059e-01 2.599859999999999949e-01 -2.567800000000000082e-01 2.008719999999999950e-01 -2.217570000000000097e-01 -3.299400000000000249e-02 2.299279999999999935e-01 -1.900989999999999902e-01 2.153770000000000129e-01 2.480940000000000090e-01 2.020460000000000034e-01 1.430099999999999948e-02 1.091499999999999936e-02 2.452439999999999898e-01 -1.451399999999999912e-01 -1.869740000000000013e-01 3.025450000000000084e-01 8.701399999999999413e-02 -1.912260000000000071e-01 7.861200000000000132e-02 -2.698260000000000103e-01 1.618410000000000126e-01 -2.604580000000000228e-01 1.861810000000000132e-01 4.826400000000000134e-02 1.709950000000000081e-01 1.217900000000000059e-02 1.138389999999999957e-01 2.433700000000000099e-02 -3.880499999999999922e-02 1.385190000000000032e-01 -3.828800000000000259e-02 1.893640000000000045e-01 1.856000000000000011e-03 1.439320000000000044e-01 2.058969999999999967e-01 -4.404480000000000062e-01 -2.721060000000000145e-01 1.594119999999999981e-01 2.292100000000000040e-02 -6.032300000000000162e-02 7.669399999999999828e-02 -2.855110000000000148e-01 -1.364390000000000047e-01 3.822599999999999887e-01 -8.956999999999999684e-03 -6.197199999999999931e-02 2.438510000000000122e-01 -1.525800000000000073e-02 1.219869999999999982e-01 2.088900000000000132e-02 1.011500000000000038e-01 -7.774000000000000354e-02 -1.773859999999999881e-01 -2.941900000000000071e-02 -1.213309999999999944e-01
1.341299999999999992e-01 7.537800000000000056e-02 6.966899999999999482e-02 -1.062600000000000003e-02 -8.243999999999999592e-03 -1.666499999999999926e-01 -1.552880000000000094e-01 -3.564500000000000307e-02 9.004600000000000104e-02 -1.404690000000000105e-01 -2.713799999999999893e-02 1.141889999999999988e-01 2.598400000000000015e-02 1.592300000000000104e-01 1.359090000000000020e-01 -1.441429999999999934e-01 6.101899999999999685e-02 -1.418139999999999956e-01 9.513999999999999888e-03 4.877000000000000085e-02 7.182499999999999996e-02 -3.420600000000000029e-02 -3.124800000000000147e-02 3.172599999999999726e-02 -6.679799999999999627e-02 4.715999999999999706e-03 -5.272600000000000203e-02 2.952447999999999961e+00 -1.766569999999999974e+00 -1.144212999999999925e+00 2.919207999999999803e+00 -1.785632000000000108e+00 -1.197224000000000066e+00 2.036100000000000063e-02 3.147900000000000004e-02 -2.345600000000000115e-02 -8.044199999999999962e-02 3.444799999999999945e-02 3.852200000000000069e-02 2.950733000000000050e+00 -1.667683999999999944e+00 -1.196755000000000013e+00 2.935010000000000119e+00 -1.676906999999999925e+00 -1.223638000000000003e+00 3.004750000000000032e+00 1.698447000000000040e+00 -2.523090999999999973e+00 3.070908999999999889e+00 1.736656999999999895e+00 -2.413748000000000005e+00 1.389459999999999862e-01 -5.203000000000000159e-03 -8.308400000000000507e-02 -3.015439999999999898e+00 -1.725073999999999996e+00 2.456011999999999862e+00 -2.974791999999999881e+00 1.736849000000000087e+00 -2.547803000000000040e+00 8.987799999999999956e-02 3.506350999999999996e+00 2.457673999999999914e+00 1.060429999999999984e-01 4.392000000000000071e-03 3.684693999999999914e+00 -3.014839999999999964e+00 -1.875302999999999942e+00 2.508418999999999954e+00 -2.956653999999999893e+00 -1.763857000000000008e+00 -1.316607000000000083e+00 -3.033894999999999786e+00 -1.752202999999999955e+00 2.478158000000000083e+00 -3.005920999999999843e+00 -1.687524999999999942e+00 -1.196458999999999939e+00 -3.796800000000000175e-02 2.601799999999999946e-02 3.649236000000000146e+00 -6.817000000000000143e-03 5.643999999999999712e-02 6.637800000000000644e-02 -8.664900000000000380e-02 3.507899999999999907e-02 3.903899999999999731e-02 -7.381400000000000461e-02 1.776300000000000101e-02 -4.296799999999999925e-02 -1.059660000000000046e-01 3.479410999999999810e+00 -1.184681000000000095e+00 -9.001599999999999879e-02 3.488462999999999870e+00 -1.157561000000000062e+00 1.484399999999999956e-02 5.557900000000000340e-02 -2.710699999999999915e-02 -3.960139999999999771e-01 1.687899999999999956e-01 1.841440000000000021e-01 -4.446689999999999809e-01 -7.312799999999999856e-02 2.980229999999999824e-01 -3.329399999999999721e-02 1.444419999999999871e-01 -2.309599999999999848e-02 1.204299999999999989e-02 2.474089999999999900e-01 -9.281399999999999373e-02 -3.959800000000000125e-02 1.407100000000000017e-01 -3.354499999999999843e-02 -2.318389999999999895e-01 -9.743100000000000371e-02 1.763149999999999995e-01 -2.125509999999999899e-01 3.300000000000000253e-05 -3.206019999999999981e-01 1.558249999999999913e-01 2.127280000000000004e-01 2.817390000000000172e-01 -8.633000000000000049e-03 6.798800000000000676e-02 7.523900000000000032e-02 -4.451999999999999708e-02 1.548239999999999894e-01 -2.701200000000000129e-02 -8.677700000000000691e-02 2.287300000000000097e-02 -5.252400000000000124e-02 -2.766569999999999863e-01 -1.438240000000000074e-01 2.184399999999999953e-01 1.051259999999999972e-01 -1.811460000000000015e-01 -1.686819999999999986e-01 3.311279999999999779e-01 -2.335679999999999978e-01 -1.181559999999999971e-01 2.424310000000000076e-01 -1.018310000000000048e-01 5.547799999999999954e-02 4.803689999999999904e-01 7.301599999999999757e-02 -1.856049999999999922e-01 3.705539999999999945e-01 9.610000000000000486e-03 -3.658390000000000253e-01 2.740830000000000211e-01 -2.564819999999999878e-01 -7.902800000000000102e-02 1.675199999999999953e-02 -2.758280000000000176e-01 8.565200000000000591e-02 1.251579999999999915e-01 -2.208660000000000068e-01 -2.419709999999999916e-01 3.230700000000000238e-01 -1.065750000000000031e-01 8.193300000000000582e-02
7.153199999999999836e-02 -7.393600000000000172e-02 1.185500000000000026e-01 -1.112520000000000037e-01 7.249899999999999400e-02 7.248300000000000576e-02 -1.467590000000000006e-01 -5.538400000000000267e-02 -1.592299999999999965e-02 7.023300000000000376e-02 1.074169999999999986e-01 -7.502300000000000635e-02 -1.376759999999999928e-01 -1.043329999999999952e-01 3.034099999999999991e-02 -9.434499999999999831e-02 1.196969999999999978e-01 -9.435599999999999543e-02 -1.864000000000000032e-02 5.285399999999999820e-02 -4.406600000000000100e-02 -4.938800000000000134e-02 4.532200000000000117e-02 5.246499999999999775e-02 2.992021999999999959e+00 -1.661219000000000001e+00 -1.156770000000000076e+00 2.946245999999999921e+00 -1.738405999999999896e+00 -1.288133999999999890e+00 2.925375999999999976e+00 -1.676247000000000043e+00 -1.167375999999999969e+00 -8.115999999999999950e-03 4.191500000000000087e-02 1.657199999999999993e-02 -3.162199999999999733e-02 -3.529100000000000292e-02 -4.256900000000000267e-02 2.941078000000000081e+00 -1.721308000000000060e+00 -1.174333000000000071e+00 -3.374300000000000216e-02 -2.366499999999999854e-02 5.315199999999999786e-02 7.285200000000000009e-02 3.406839999999999868e+00 -1.253954000000000013e+00 4.893900000000000333e-02 3.496375000000000011e+00 2.501571000000000211e+00 1.730399999999999994e-02 -3.526914999999999800e+00 -2.509072999999999887e+00 -2.996465999999999852e+00 -1.834497999999999962e+00 2.462368000000000112e+00 -3.026206000000000174e+00 1.760251999999999928e+00 -2.530156999999999989e+00 3.132620000000000182e+00 -1.735994000000000037e+00 2.483522999999999925e+00 6.849199999999999733e-02 -6.314500000000000668e-02 3.553952999999999918e+00 -2.920513999999999832e+00 -1.823269999999999946e+00 -1.215411999999999937e+00 6.413900000000000157e-02 3.338814000000000171e+00 -1.263435000000000086e+00 -4.204100000000000198e-02 6.067800000000000277e-02 -3.422700000000000048e-02 -7.170500000000000485e-02 2.668999999999999932e-03 3.674135000000000151e+00 -3.074756999999999962e+00 1.807682000000000011e+00 -2.451416000000000039e+00 -7.522900000000000420e-02 6.009599999999999664e-02 -1.470499999999999932e-02 -6.523199999999999832e-02 8.193799999999999695e-02 3.697779000000000149e+00 -3.037215999999999916e+00 -1.710118000000000027e+00 -1.183381000000000016e+00 -5.366100000000000037e-02 -1.013799999999999944e-02 -2.499099999999999933e-02 -4.035500000000000198e-02 -4.827599999999999947e-02 6.589000000000000412e-02 -3.519300000000000206e-02 3.451617000000000157e+00 -1.197426000000000101e+00 -1.802219999999999933e-01 -1.101310000000000067e-01 -4.848999999999999838e-02 -2.885249999999999759e-01 2.856119999999999770e-01 2.711129999999999929e-01 -1.341569999999999985e-01 1.915459999999999940e-01 2.054500000000000076e-02 -8.367700000000000138e-02 6.073499999999999732e-02 1.549989999999999979e-01 -3.828460000000000196e-01 3.143529999999999935e-01 -4.588000000000000064e-03 -1.663860000000000061e-01 -2.705130000000000035e-01 1.877119999999999900e-01 -9.100300000000000056e-02 -1.518199999999999932e-02 1.452980000000000105e-01 5.430200000000000304e-02 2.052289999999999948e-01 2.112570000000000003e-01 -5.941899999999999959e-02 -2.385500000000000120e-02 7.357299999999999951e-02 -1.669029999999999958e-01 2.785889999999999755e-01 -3.092059999999999809e-01 -1.532129999999999881e-01 2.116310000000000136e-01 4.184000000000000219e-03 1.034479999999999983e-01 1.102839999999999931e-01 1.788299999999999890e-01 1.385079999999999922e-01 -2.179770000000000041e-01 -1.122380000000000044e-01 3.882149999999999768e-01 -3.246600000000000041e-01 1.610699999999999910e-01 2.730429999999999802e-01 -2.838499999999999912e-01 -2.732979999999999854e-01 2.622140000000000026e-01 3.127300000000000219e-02 -1.271869999999999945e-01 2.555850000000000066e-01 -1.657869999999999899e-01 -1.935360000000000136e-01 3.153059999999999752e-01 3.699299999999999811e-02 -1.274689999999999990e-01 2.067430000000000101e-01 -1.594250000000000111e-01 6.749499999999999944e-02 3.129330000000000167e-01 -2.569000000000000103e-02 8.411000000000000421e-02 1.153379999999999961e-01 -1.937000000000000111e-01 -4.102319999999999856e-01
-4.646200000000000330e-02 1.669370000000000021e-01 1.161950000000000066e-01 -1.375530000000000086e-01 1.152790000000000065e-01 2.651900000000000091e-02 -5.025700000000000306e-02 -1.661090000000000066e-01 -5.562600000000000183e-02 -4.639399999999999774e-02 1.412629999999999997e-01 2.225699999999999901e-02 8.233200000000000240e-02 -9.380900000000000349e-02 2.262700000000000128e-02 6.625200000000000533e-02 -1.338670000000000138e-01 -1.168919999999999959e-01 1.182300000000000018e-02 -5.515500000000000264e-02 5.702499999999999930e-02 1.382700000000000075e-02 -7.534899999999999931e-02 -9.279000000000000789e-03 3.000462999999999880e+00 -1.745106000000000046e+00 -1.186357000000000106e+00 3.035032000000000174e+00 1.729549999999999921e+00 -2.481463999999999892e+00 2.964714999999999989e+00 -1.701402999999999999e+00 -1.249108000000000107e+00 1.371900000000000029e-02 2.244700000000000167e-02 -3.635800000000000143e-02 -2.986886999999999848e+00 -1.662252999999999981e+00 -1.211357999999999935e+00 3.006615000000000038e+00 -1.682058000000000053e+00 -1.312998000000000109e+00 3.341700000000000226e-02 1.092500000000000068e-02 3.588420000000000165e+00 1.071000000000000077e-02 3.373301999999999801e+00 -1.170441000000000065e+00 5.674499999999999683e-02 3.488919000000000104e+00 2.476360999999999812e+00 -2.923258000000000134e+00 -1.764736000000000082e+00 -1.213538000000000006e+00 -3.003801000000000165e+00 -1.805141000000000107e+00 2.471567999999999987e+00 -3.004180999999999990e+00 1.769500999999999991e+00 -2.533043999999999851e+00 1.153649999999999953e-01 -8.867999999999999147e-03 3.619283999999999946e+00 3.106351999999999780e+00 -1.717981999999999898e+00 2.523617999999999917e+00 -2.932812999999999892e+00 -1.755865999999999927e+00 -1.258985000000000021e+00 6.700499999999999512e-02 3.419655999999999807e+00 -1.292796000000000056e+00 -9.815899999999999626e-02 -5.851000000000000298e-03 1.015299999999999953e-01 -8.308500000000000607e-02 -2.295999999999999864e-03 1.757999999999999841e-02 -7.584499999999999575e-02 -1.940400000000000111e-02 4.849400000000000238e-02 -3.760199999999999654e-02 3.487392999999999965e+00 -1.160641999999999951e+00 -6.015700000000000214e-02 6.419199999999999906e-02 -6.242000000000000152e-03 -5.481300000000000061e-02 7.807799999999999463e-02 3.906000000000000184e-03 -2.359999999999999945e-02 -3.527182999999999957e+00 -2.420685999999999893e+00 -8.374800000000000300e-02 5.620599999999999902e-02 -3.635599999999999943e-02 -8.449199999999999766e-02 2.623699999999999991e-02 3.669256999999999991e+00 -4.707839999999999803e-01 8.448300000000000254e-02 1.874580000000000135e-01 -2.690690000000000026e-01 -5.793500000000000039e-02 8.180199999999999971e-02 -2.639770000000000172e-01 1.358340000000000103e-01 3.089069999999999871e-01 -8.920200000000000351e-02 1.779000000000000026e-01 -6.220400000000000235e-02 -3.636070000000000135e-01 3.294949999999999823e-01 1.845199999999999965e-02 -4.340900000000000314e-02 -2.764000000000000137e-02 -3.667000000000000121e-03 -2.987700000000000078e-02 1.435460000000000069e-01 -2.056219999999999992e-01 9.154099999999999737e-02 -8.754199999999999482e-02 1.516010000000000135e-01 -1.807200000000000126e-02 -3.550869999999999860e-01 -3.947400000000000214e-02 2.022300000000000139e-02 9.009000000000000341e-02 1.301219999999999877e-01 9.638900000000000245e-02 1.366600000000000037e-01 -3.524630000000000263e-01 1.737110000000000043e-01 1.402549999999999908e-01 2.439799999999999955e-02 -7.045800000000000674e-02 -2.564200000000000160e-02 1.217150000000000037e-01 9.506599999999999773e-02 1.246830000000000022e-01 -3.575150000000000272e-01 2.944829999999999948e-01 -1.203000000000000076e-03 -3.728000000000000064e-02 3.773380000000000067e-01 -8.343399999999999428e-02 -8.460399999999999865e-02 6.724099999999999522e-02 -3.460719999999999907e-01 -1.625850000000000073e-01 2.196299999999999919e-01 -2.436609999999999887e-01 4.245780000000000109e-01 4.283999999999999614e-03 -1.311750000000000138e-01 -1.202799999999999980e-01 2.190779999999999950e-01 5.536599999999999855e-02 -1.082840000000000052e-01 1.082049999999999956e-01 -8.637000000000000233e-02 7.247499999999999776e-02