2.834867358999999976e+00 -4.171020685513938353e-24 0.000000000000000000e+00 1.417433720784609719e+00 2.455067125999999877e+00 3.308722450212110699e-24 1.417433732524121304e+00 8.183557293708989544e-01 2.314659487333333043e+00
2.917815442000000203e+00 0.000000000000000000e+00 0.000000000000000000e+00 1.388505858999999898e+00 2.462972617000000142e+00 0.000000000000000000e+00 1.493685874999999941e+00 8.208750369999999741e-01 2.255977122000000001e+00
2.788964174999999823e+00 0.000000000000000000e+00 0.000000000000000000e+00 1.436373031000000022e+00 2.402180786000000179e+00 0.000000000000000000e+00 1.391679026000000041e+00 8.216041189999999661e-01 2.299182360000000092e+00
2.913427883999999857e+00 0.000000000000000000e+00 0.000000000000000000e+00 1.525913115999999903e+00 2.513948062999999955e+00 0.000000000000000000e+00 1.484642703000000008e+00 8.460766419999999899e-01 2.320804458000000015e+00
2.812536796999999922e+00 0.000000000000000000e+00 0.000000000000000000e+00 1.366010224000000051e+00 2.496957729000000015e+00 0.000000000000000000e+00 1.339208224000000058e+00 8.640698119999999927e-01 2.298964702000000138e+00
2.774822432000000116e+00 0.000000000000000000e+00 0.000000000000000000e+00 1.334114727000000000e+00 2.437683188999999917e+00 0.000000000000000000e+00 1.344465878000000059e+00 7.447445369999999842e-01 2.354362652999999916e+00
2.844167254999999894e+00 0.000000000000000000e+00 0.000000000000000000e+00 1.427683776999999932e+00 2.528716638000000128e+00 0.000000000000000000e+00 1.470526897999999916e+00 8.059982909999999778e-01 2.340299831999999913e+00
2.917531229000000170e+00 0.000000000000000000e+00 0.000000000000000000e+00 1.530190825999999893e+00 2.401009274999999832e+00 0.000000000000000000e+00 1.520764420999999977e+00 8.427173079999999983e-01 2.331394720000000031e+00
2.775017614999999882e+00 0.000000000000000000e+00 0.000000000000000000e+00 1.403897659999999936e+00 2.393031555999999949e+00 0.000000000000000000e+00 1.436649134999999911e+00 8.605559099999999795e-01 2.313424947000000120e+00
2.917839201000000049e+00 0.000000000000000000e+00 0.000000000000000000e+00 1.410075890999999970e+00 2.382078508999999844e+00 0.000000000000000000e+00 1.377398955000000091e+00 7.486119119999999905e-01 2.335793451999999881e+00
2.883006330000000172e+00 0.000000000000000000e+00 0.000000000000000000e+00 1.475071734999999995e+00 2.389707301000000061e+00 0.000000000000000000e+00 1.392268684999999895e+00 8.605573539999999966e-01 2.353217333999999994e+00
2.784225772000000099e+00 0.000000000000000000e+00 0.000000000000000000e+00 1.444057067999999999e+00 2.456381233000000108e+00 0.000000000000000000e+00 1.423546749000000000e+00 8.280023989999999445e-01 2.293911367999999840e+00
2.900858313000000077e+00 0.000000000000000000e+00 0.000000000000000000e+00 1.432785106000000086e+00 2.393511866999999960e+00 0.000000000000000000e+00 1.451308363999999962e+00 7.535889159999999976e-01 2.267183903999999917e+00
2.831408525000000065e+00 0.000000000000000000e+00 0.000000000000000000e+00 1.440641510999999930e+00 2.476021680000000114e+00 0.000000000000000000e+00 1.433945666999999924e+00 8.514981569999999778e-01 2.305426585000000195e+00
2.802018177999999970e+00 0.000000000000000000e+00 0.000000000000000000e+00 1.356113649999999948e+00 2.457080271000000149e+00 0.000000000000000000e+00 1.351848552000000092e+00 8.805035230000000102e-01 2.306191008999999958e+00
2.872482773000000211e+00 0.000000000000000000e+00 0.000000000000000000e+00 1.381940806000000022e+00 2.404202650999999857e+00 0.000000000000000000e+00 1.462144686000000027e+00 8.594095929999999717e-01 2.337657539999999923e+00
2.784952088999999908e+00 0.000000000000000000e+00 0.000000000000000000e+00 1.374333864000000016e+00 2.481910534999999918e+00 0.000000000000000000e+00 1.399317297000000071e+00 8.566188040000000115e-01 2.379003920000000161e+00
2.831114195000000056e+00 0.000000000000000000e+00 0.000000000000000000e+00 1.407537700000000003e+00 2.502874312999999962e+00 0.000000000000000000e+00 1.480420684999999903e+00 9.027335950000000553e-01 2.326336849000000040e+00
2.907987685999999794e+00 0.000000000000000000e+00 0.000000000000000000e+00 1.499488694000000066e+00 2.505114427000000088e+00 0.000000000000000000e+00 1.432471671999999918e+00 7.808226059999999746e-01 2.251489794999999905e+00
2.803079435999999980e+00 0.000000000000000000e+00 0.000000000000000000e+00 1.432938969000000062e+00 2.383084381999999835e+00 0.000000000000000000e+00 1.392992937999999903e+00 8.518162489999999698e-01 2.270481241999999789e+00
2.796247822999999855e+00 0.000000000000000000e+00 0.000000000000000000e+00 1.401399258999999953e+00 2.492413293999999890e+00 0.000000000000000000e+00 1.357704114999999989e+00 8.872358049999999885e-01 2.311415143000000061e+00
2.863502382000000068e+00 2.704225760726447277e-24 0.000000000000000000e+00 1.431751233650635280e+00 2.479865783499999754e+00 0.000000000000000000e+00 1.431751245629292901e+00 8.266219483994944328e-01 2.338039885999999346e+00
2.860937053999999868e+00 0.000000000000000000e+00 0.000000000000000000e+00 1.476977428000000092e+00 2.434861488000000129e+00 0.000000000000000000e+00 1.378616596000000083e+00 8.278997590000000129e-01 2.393842992999999808e+00
2.886277273999999782e+00 0.000000000000000000e+00 0.000000000000000000e+00 1.480107912000000026e+00 2.409646717999999854e+00 0.000000000000000000e+00 1.484172349999999918e+00 8.717794199999999716e-01 2.308833717999999813e+00
2.876032713999999935e+00 0.000000000000000000e+00 0.000000000000000000e+00 1.408090228000000055e+00 2.474080680000000143e+00 0.000000000000000000e+00 1.418263738000000052e+00 7.951136109999999979e-01 2.331335975000000005e+00
2.784406205999999884e+00 0.000000000000000000e+00 0.000000000000000000e+00 1.352278322999999949e+00 2.439340308999999873e+00 0.000000000000000000e+00 1.413192500000000074e+00 8.791067729999999525e-01 2.388826090999999874e+00
2.862364540000000179e+00 0.000000000000000000e+00 0.000000000000000000e+00 1.437762385000000087e+00 2.480214052000000002e+00 0.000000000000000000e+00 1.390268293000000099e+00 8.162021870000000234e-01 2.327488301999999898e+00
2.795247931000000019e+00 0.000000000000000000e+00 0.000000000000000000e+00 1.444754262000000011e+00 2.406446616999999844e+00 0.000000000000000000e+00 1.391615038000000082e+00 7.916504800000000452e-01 2.311786069000000055e+00
2.948933932000000091e+00 0.000000000000000000e+00 0.000000000000000000e+00 1.415298922000000070e+00 2.427092164999999913e+00 0.000000000000000000e+00 1.467294612000000109e+00 8.416561320000000013e-01 2.352922039000000076e+00
2.817620440999999865e+00 0.000000000000000000e+00 0.000000000000000000e+00 1.426484630000000031e+00 2.407319204000000212e+00 0.000000000000000000e+00 1.391545564000000068e+00 8.294290250000000420e-01 2.286449714999999827e+00
2.898465219999999842e+00 0.000000000000000000e+00 0.000000000000000000e+00 1.393310339999999981e+00 2.429368886999999866e+00 0.000000000000000000e+00 1.391972315000000071e+00 7.995794880000000049e-01 2.366507470999999807e+00
2.814959500000000059e+00 0.000000000000000000e+00 0.000000000000000000e+00 1.366773098999999991e+00 2.546263536000000105e+00 0.000000000000000000e+00 1.339848820999999912e+00 8.721446959999999970e-01 2.375480183000000078e+00
2.904116034999999929e+00 0.000000000000000000e+00 0.000000000000000000e+00 1.488812771000000090e+00 2.412538973000000198e+00 0.000000000000000000e+00 1.467580741999999994e+00 7.742420089999999533e-01 2.312839192999999849e+00
2.794129798000000164e+00 0.000000000000000000e+00 0.000000000000000000e+00 1.345159140999999892e+00 2.440171890999999871e+00 0.000000000000000000e+00 1.431350531999999953e+00 8.521994379999999758e-01 2.401801414999999995e+00
2.847065310000000071e+00 0.000000000000000000e+00 0.000000000000000000e+00 1.385270876999999956e+00 2.476061506999999828e+00 0.000000000000000000e+00 1.372484744999999950e+00 8.607334079999999776e-01 2.327126118999999882e+00
2.865945674999999859e+00 0.000000000000000000e+00 0.000000000000000000e+00 1.371977264999999946e+00 2.461729614999999871e+00 0.000000000000000000e+00 1.454290650999999990e+00 8.805339810000000211e-01 2.385917624999999820e+00
2.795017483000000080e+00 0.000000000000000000e+00 0.000000000000000000e+00 1.406113366000000031e+00 2.475643869000000219e+00 0.000000000000000000e+00 1.432744258000000048e+00 7.997325360000000494e-01 2.330566112000000079e+00
2.786644927000000216e+00 0.000000000000000000e+00 0.000000000000000000e+00 1.333234059000000027e+00 2.420272300000000154e+00 0.000000000000000000e+00 1.352535897999999959e+00 8.056375430000000115e-01 2.292725443999999779e+00
2.854727073999999920e+00 0.000000000000000000e+00 0.000000000000000000e+00 1.387240142000000009e+00 2.454650741000000025e+00 0.000000000000000000e+00 1.376685327999999986e+00 8.374512710000000526e-01 2.323501167999999950e+00
2.889220583999999814e+00 0.000000000000000000e+00 0.000000000000000000e+00 1.492667602000000038e+00 2.454821862999999826e+00 0.000000000000000000e+00 1.467869019999999969e+00 7.723002039999999901e-01 2.394499848999999791e+00
2.787025110000000083e+00 0.000000000000000000e+00 0.000000000000000000e+00 1.384356793999999891e+00 2.422492434000000028e+00 0.000000000000000000e+00 1.338924218999999916e+00 7.401171989999999479e-01 2.342814324999999975e+00
2.874604876999999892e+00 0.000000000000000000e+00 0.000000000000000000e+00 1.497906721000000108e+00 2.426039330000000049e+00 0.000000000000000000e+00 1.485751051999999905e+00 8.178372400000000209e-01 2.284041554999999946e+00
2.892137405999999800e+00 -4.662222422043747402e-25 3.308722450212110699e-24 1.446068746650635228e+00 2.504664441499999672e+00 3.308722450212110699e-24 1.446068757629292767e+00 8.348881683423035049e-01 2.361420284666666536e+00
2.848435652000000040e+00 0.000000000000000000e+00 0.000000000000000000e+00 1.476560754000000086e+00 2.560466040000000110e+00 0.000000000000000000e+00 1.496351933999999995e+00 8.262367859999999453e-01 2.431183974000000081e+00
2.818272517000000033e+00 0.000000000000000000e+00 0.000000000000000000e+00 1.454760701999999961e+00 2.495944109999999938e+00 0.000000000000000000e+00 1.377646350000000020e+00 8.137547419999999754e-01 2.408184551999999812e+00
2.944991008000000132e+00 0.000000000000000000e+00 0.000000000000000000e+00 1.517552599000000058e+00 2.552847541000000220e+00 0.000000000000000000e+00 1.417870482999999959e+00 8.887601480000000276e-01 2.345560642999999779e+00
2.820425499999999808e+00 0.000000000000000000e+00 0.000000000000000000e+00 1.372585254000000088e+00 2.551978742999999827e+00 0.000000000000000000e+00 1.393380269999999976e+00 8.591342309999999705e-01 2.430815152000000090e+00
2.933260982999999822e+00 0.000000000000000000e+00 0.000000000000000000e+00 1.431132316000000015e+00 2.534760654999999918e+00 0.000000000000000000e+00 1.404323465999999909e+00 8.920161250000000486e-01 2.407889502999999820e+00
2.841482826000000017e+00 0.000000000000000000e+00 0.000000000000000000e+00 1.438562453999999935e+00 2.491068996000000091e+00 0.000000000000000000e+00 1.370486252999999932e+00 7.615980620000000201e-01 2.296969473999999956e+00
2.906708780000000214e+00 0.000000000000000000e+00 0.000000000000000000e+00 1.434673810999999910e+00 2.519873448999999876e+00 0.000000000000000000e+00 1.433018042000000047e+00 8.350171579999999816e-01 2.344228504999999796e+00
2.843617855000000194e+00 0.000000000000000000e+00 0.000000000000000000e+00 1.404851309000000104e+00 2.548961176000000162e+00 0.000000000000000000e+00 1.456527536999999928e+00 8.243307130000000482e-01 2.333323551999999967e+00
2.837448925999999982e+00 0.000000000000000000e+00 0.000000000000000000e+00 1.464734210999999897e+00 2.492667303999999806e+00 0.000000000000000000e+00 1.423074321000000086e+00 8.755226249999999988e-01 2.342521157000000187e+00
2.919383510999999931e+00 0.000000000000000000e+00 0.000000000000000000e+00 1.464523145000000026e+00 2.501838141999999987e+00 0.000000000000000000e+00 1.466182563000000050e+00 8.828759120000000404e-01 2.333867425999999856e+00
2.897739094999999931e+00 0.000000000000000000e+00 0.000000000000000000e+00 1.475325572999999890e+00 2.563205629000000041e+00 0.000000000000000000e+00 1.446612272000000088e+00 8.745684550000000224e-01 2.308620851000000140e+00
2.974486026000000116e+00 0.000000000000000000e+00 0.000000000000000000e+00 1.459042759999999994e+00 2.462266345999999828e+00 0.000000000000000000e+00 1.541520722000000010e+00 8.566579479999999469e-01 2.428327817000000000e+00
2.806389713000000175e+00 0.000000000000000000e+00 0.000000000000000000e+00 1.476789836000000022e+00 2.510848133000000093e+00 0.000000000000000000e+00 1.494987370999999898e+00 8.958088159999999522e-01 2.377684019999999787e+00
2.806657914000000087e+00 0.000000000000000000e+00 0.000000000000000000e+00 1.437096224999999894e+00 2.513830527000000092e+00 0.000000000000000000e+00 1.399648151999999923e+00 8.562529639999999498e-01 2.381585433000000140e+00
2.808437743999999903e+00 0.000000000000000000e+00 0.000000000000000000e+00 1.404973707999999988e+00 2.553574864000000222e+00 0.000000000000000000e+00 1.365262081000000016e+00 8.045628910000000023e-01 2.315382168999999823e+00
2.901343515999999845e+00 0.000000000000000000e+00 0.000000000000000000e+00 1.440397249000000102e+00 2.494648617999999818e+00 0.000000000000000000e+00 1.390059201999999994e+00 9.008395850000000538e-01 2.353584666999999797e+00
2.951186922000000212e+00 0.000000000000000000e+00 0.000000000000000000e+00 1.493475958999999964e+00 2.540752619000000045e+00 0.000000000000000000e+00 1.514650739999999995e+00 8.677353159999999788e-01 2.314257940000000069e+00
2.811504742999999973e+00 0.000000000000000000e+00 0.000000000000000000e+00 1.475052720999999956e+00 2.436772513000000195e+00 0.000000000000000000e+00 1.397456017999999967e+00 7.585264870000000270e-01 2.319688328999999882e+00
2.895781117999999932e+00 0.000000000000000000e+00 0.000000000000000000e+00 1.513223305999999990e+00 2.559175860999999941e+00 0.000000000000000000e+00 1.401733687999999978e+00 8.593234960000000200e-01 2.392368545000000069e+00
2.889388487999999811e+00 0.000000000000000000e+00 0.000000000000000000e+00 1.494867208999999919e+00 2.548008049999999969e+00 0.000000000000000000e+00 1.517283895000000049e+00 7.923759569999999641e-01 2.429511612000000209e+00
3.065004865000005907e+00 -2.106829119150985195e-24 1.259714853046531623e-23 1.532502692903807029e+00 2.654371910999990369e+00 -3.746365739333572144e-24 1.532502687400415509e+00 8.847907423258859483e-01 2.502565823999994166e+00
3.026562492000000049e+00 0.000000000000000000e+00 0.000000000000000000e+00 1.577304972000000083e+00 2.726316940999999883e+00 0.000000000000000000e+00 1.484303973999999915e+00 9.558649399999999963e-01 2.494944530999999799e+00
3.136954472000000216e+00 0.000000000000000000e+00 0.000000000000000000e+00 1.631316929000000027e+00 2.600408751999999879e+00 0.000000000000000000e+00 1.657067081000000108e+00 8.666117629999999794e-01 2.513790133000000093e+00
3.048556645000000120e+00 0.000000000000000000e+00 0.000000000000000000e+00 1.531069615999999911e+00 2.578100335999999881e+00 0.000000000000000000e+00 1.581244281999999890e+00 8.924050959999999533e-01 2.531987002999999792e+00
3.023395625000000031e+00 0.000000000000000000e+00 0.000000000000000000e+00 1.458113320000000046e+00 2.699687277999999857e+00 0.000000000000000000e+00 1.522610790000000103e+00 9.716454519999999651e-01 2.520346160999999974e+00
2.991140983000000197e+00 0.000000000000000000e+00 0.000000000000000000e+00 1.435201999000000006e+00 2.728913003999999809e+00 0.000000000000000000e+00 1.511751816000000082e+00 8.488024659999999777e-01 2.573014950000000134e+00
3.041877643999999936e+00 0.000000000000000000e+00 0.000000000000000000e+00 1.534726507000000018e+00 2.658424703000000111e+00 0.000000000000000000e+00 1.544899969999999900e+00 8.304355939999999991e-01 2.511562244999999916e+00
3.087495887999999855e+00 0.000000000000000000e+00 0.000000000000000000e+00 1.558155586000000037e+00 2.647230228999999824e+00 0.000000000000000000e+00 1.506375312000000077e+00 9.410762489999999758e-01 2.444150905999999956e+00
3.103047817999999847e+00 0.000000000000000000e+00 0.000000000000000000e+00 1.553982439000000104e+00 2.696645938000000076e+00 0.000000000000000000e+00 1.492359524999999909e+00 8.298703229999999653e-01 2.568593493999999922e+00
3.049821845999999947e+00 0.000000000000000000e+00 0.000000000000000000e+00 1.598203792999999928e+00 2.598966165000000217e+00 0.000000000000000000e+00 1.478687665999999901e+00 8.980053550000000051e-01 2.558923173000000162e+00
3.144874761000000074e+00 0.000000000000000000e+00 0.000000000000000000e+00 1.631853584999999995e+00 2.725840065999999950e+00 0.000000000000000000e+00 1.587405764000000108e+00 9.465085009999999466e-01 2.506207879999999832e+00
3.056371417999999895e+00 0.000000000000000000e+00 0.000000000000000000e+00 1.588395645999999939e+00 2.636349312000000111e+00 0.000000000000000000e+00 1.525564630999999949e+00 9.345586320000000002e-01 2.534280837999999925e+00
3.085623749999999887e+00 0.000000000000000000e+00 0.000000000000000000e+00 1.568362642000000085e+00 2.589580117000000126e+00 0.000000000000000000e+00 1.536456269000000097e+00 8.354001009999999505e-01 2.487868499000000178e+00
2.999243287000000091e+00 0.000000000000000000e+00 0.000000000000000000e+00 1.532541369999999903e+00 2.580003736000000103e+00 0.000000000000000000e+00 1.552868257000000085e+00 8.671744810000000525e-01 2.530394872000000017e+00
3.025077036999999969e+00 0.000000000000000000e+00 0.000000000000000000e+00 1.590217766000000088e+00 2.695700208999999958e+00 0.000000000000000000e+00 1.576048488000000081e+00 9.519052810000000475e-01 2.519954505999999927e+00
3.022724655999999843e+00 0.000000000000000000e+00 0.000000000000000000e+00 1.565084394000000101e+00 2.585752363000000109e+00 0.000000000000000000e+00 1.565593376000000037e+00 8.191597640000000125e-01 2.534061252999999958e+00
3.094671372000000087e+00 0.000000000000000000e+00 0.000000000000000000e+00 1.534330546999999934e+00 2.600939755000000186e+00 0.000000000000000000e+00 1.475760270999999957e+00 8.621128030000000386e-01 2.550622327000000134e+00
3.008305324000000169e+00 0.000000000000000000e+00 0.000000000000000000e+00 1.432965105999999933e+00 2.704461366999999949e+00 0.000000000000000000e+00 1.537089160000000065e+00 8.612146130000000177e-01 2.532735350999999913e+00
3.035573610000000144e+00 0.000000000000000000e+00 0.000000000000000000e+00 1.553434009999999921e+00 2.610247119999999921e+00 0.000000000000000000e+00 1.579488768999999904e+00 8.384024700000000108e-01 2.436125039999999853e+00
2.979312490999999952e+00 0.000000000000000000e+00 0.000000000000000000e+00 1.480298305000000036e+00 2.624555421000000166e+00 0.000000000000000000e+00 1.410835763999999992e+00 8.475019809999999598e-01 2.484194624000000129e+00
3.150319135999999798e+00 0.000000000000000000e+00 0.000000000000000000e+00 1.626891572999999980e+00 2.584119451999999928e+00 0.000000000000000000e+00 1.592029590000000105e+00 7.974436480000000049e-01 2.448931956000000021e+00
3.095964511000005803e+00 -3.381249381017377317e-24 1.181999241322769969e-23 1.547982516769832229e+00 2.681183748499991193e+00 8.711367944277264402e-24 1.547982512505587271e+00 8.937280222972906474e-01 2.527844267333327455e+00
3.031361889999999892e+00 0.000000000000000000e+00 0.000000000000000000e+00 1.472326382000000100e+00 2.694042007000000183e+00 0.000000000000000000e+00 1.549660083000000022e+00 8.292117439999999728e-01 2.452946730999999936e+00
3.016114929000000000e+00 0.000000000000000000e+00 0.000000000000000000e+00 1.487181188999999959e+00 2.647953623999999895e+00 0.000000000000000000e+00 1.478480819000000057e+00 9.500311940000000233e-01 2.562987817999999862e+00
3.135091683000000184e+00 0.000000000000000000e+00 0.000000000000000000e+00 1.488137884999999994e+00 2.677120721000000092e+00 0.000000000000000000e+00 1.524160181999999919e+00 8.817592709999999556e-01 2.590056491999999988e+00
3.137055648000000030e+00 0.000000000000000000e+00 0.000000000000000000e+00 1.646729958000000105e+00 2.716362616000000063e+00 0.000000000000000000e+00 1.586210989000000016e+00 9.052705979999999819e-01 2.579939258000000013e+00
3.162442582000000169e+00 0.000000000000000000e+00 0.000000000000000000e+00 1.632615777000000046e+00 2.735531830999999858e+00 0.000000000000000000e+00 1.616542667000000044e+00 8.776815009999999750e-01 2.472831064000000190e+00
3.026177353000000014e+00 0.000000000000000000e+00 0.000000000000000000e+00 1.575191666999999907e+00 2.608302054999999786e+00 0.000000000000000000e+00 1.469485541999999922e+00 9.137489909999999549e-01 2.593277279000000046e+00
3.109741125000000217e+00 0.000000000000000000e+00 0.000000000000000000e+00 1.488235374000000055e+00 2.701106005000000199e+00 0.000000000000000000e+00 1.490492952000000093e+00 8.849523580000000500e-01 2.526045809999999836e+00
3.183008186999999989e+00 0.000000000000000000e+00 0.000000000000000000e+00 1.655883533999999990e+00 2.760254585000000205e+00 0.000000000000000000e+00 1.682451648000000022e+00 8.507354929999999538e-01 2.538240387000000098e+00
3.025673464000000035e+00 0.000000000000000000e+00 0.000000000000000000e+00 1.502731296000000105e+00 2.628306015999999801e+00 0.000000000000000000e+00 1.571899812999999924e+00 8.898249000000000297e-01 2.500225399000000071e+00
3.050492574999999817e+00 0.000000000000000000e+00 0.000000000000000000e+00 1.546970278000000087e+00 2.624565821000000021e+00 0.000000000000000000e+00 1.591692654000000040e+00 8.677694000000000241e-01 2.511538975000000118e+00
3.138854713000000185e+00 0.000000000000000000e+00 0.000000000000000000e+00 1.565646531999999924e+00 2.638075369000000059e+00 0.000000000000000000e+00 1.587289954999999919e+00 8.458413809999999478e-01 2.590519183000000059e+00
3.132995026000000127e+00 0.000000000000000000e+00 0.000000000000000000e+00 1.486849789000000088e+00 2.754592999000000209e+00 0.000000000000000000e+00 1.530323238999999891e+00 9.765405940000000395e-01 2.548382214000000090e+00
3.129849470999999994e+00 0.000000000000000000e+00 0.000000000000000000e+00 1.516974798999999985e+00 2.754388162999999778e+00 0.000000000000000000e+00 1.475981129000000003e+00 9.627597239999999834e-01 2.521832321000000210e+00
3.059719825000000171e+00 0.000000000000000000e+00 0.000000000000000000e+00 1.607616874000000085e+00 2.638816551000000121e+00 0.000000000000000000e+00 1.594779699999999911e+00 8.610689929999999492e-01 2.481940577000000037e+00
3.145694921000000033e+00 0.000000000000000000e+00 0.000000000000000000e+00 1.649294631999999927e+00 2.722222786000000117e+00 0.000000000000000000e+00 1.657429100999999960e+00 8.701641300000000356e-01 2.511289193000000086e+00
3.111354078000000190e+00 0.000000000000000000e+00 0.000000000000000000e+00 1.569448527999999898e+00 2.658613641000000083e+00 0.000000000000000000e+00 1.611883315999999899e+00 8.363444300000000275e-01 2.551377962000000110e+00
3.135981598999999953e+00 0.000000000000000000e+00 0.000000000000000000e+00 1.610492429000000003e+00 2.685056449999999817e+00 0.000000000000000000e+00 1.609046442999999993e+00 9.011423119999999454e-01 2.487371870000000040e+00
3.164162243999999902e+00 0.000000000000000000e+00 0.000000000000000000e+00 1.616923823000000038e+00 2.700942652999999805e+00 0.000000000000000000e+00 1.521558834999999998e+00 9.407954530000000037e-01 2.511033043999999936e+00
3.162116070999999806e+00 0.000000000000000000e+00 0.000000000000000000e+00 1.523172109000000107e+00 2.638150533000000131e+00 0.000000000000000000e+00 1.521254625000000082e+00 8.241064059999999580e-01 2.523837767999999926e+00
3.023023177999999866e+00 0.000000000000000000e+00 0.000000000000000000e+00 1.513160155000000007e+00 2.700409533000000195e+00 0.000000000000000000e+00 1.519353581000000064e+00 9.401302139999999641e-01 2.583157187999999937e+00
3.126924156000005173e+00 4.825999976304707477e-23 1.104283629599009344e-23 1.563462342501883207e+00 2.707995586499990726e+00 -6.077834091046401185e-24 1.563462337899433896e+00 9.026653037115039968e-01 2.553122709333327300e+00
3.037342696000000064e+00 0.000000000000000000e+00 0.000000000000000000e+00 1.489523090000000050e+00 2.687294026000000002e+00 0.000000000000000000e+00 1.582644742999999909e+00 8.357495400000000130e-01 2.560511580000000009e+00
3.089301841000000159e+00 0.000000000000000000e+00 0.000000000000000000e+00 1.538545378000000019e+00 2.629370658000000027e+00 0.000000000000000000e+00 1.570285522999999905e+00 8.761361159999999648e-01 2.488669503000000116e+00
3.060254989999999786e+00 0.000000000000000000e+00 0.000000000000000000e+00 1.451918583999999957e+00 2.630291263999999796e+00 0.000000000000000000e+00 1.568847078999999978e+00 8.918008210000000213e-01 2.590109185999999841e+00
3.188306873000000152e+00 0.000000000000000000e+00 0.000000000000000000e+00 1.632168873999999992e+00 2.779139328999999936e+00 0.000000000000000000e+00 1.628579610999999927e+00 9.853145410000000437e-01 2.568658511999999838e+00
3.080113713999999892e+00 0.000000000000000000e+00 0.000000000000000000e+00 1.496668396000000012e+00 2.774130410000000158e+00 0.000000000000000000e+00 1.545441383000000002e+00 8.564123150000000351e-01 2.552078526999999930e+00
3.193835330999999833e+00 0.000000000000000000e+00 0.000000000000000000e+00 1.613679199999999980e+00 2.672357873999999800e+00 0.000000000000000000e+00 1.637050356999999901e+00 8.277426089999999625e-01 2.521616418999999887e+00
3.163994764999999987e+00 0.000000000000000000e+00 0.000000000000000000e+00 1.618202935000000009e+00 2.639732393000000066e+00 0.000000000000000000e+00 1.532035467000000040e+00 8.097389720000000013e-01 2.566538388000000115e+00
3.072578016000000023e+00 0.000000000000000000e+00 0.000000000000000000e+00 1.529469304000000029e+00 2.634402973999999897e+00 0.000000000000000000e+00 1.458681649000000080e+00 8.619489460000000491e-01 2.553516370000000091e+00
3.171670112000000152e+00 0.000000000000000000e+00 0.000000000000000000e+00 1.514422354999999998e+00 2.761134039999999956e+00 0.000000000000000000e+00 1.629016334999999982e+00 9.408431200000000327e-01 2.548822358999999871e+00
3.065904460000000054e+00 0.000000000000000000e+00 0.000000000000000000e+00 1.570909249999999924e+00 2.671601536999999915e+00 0.000000000000000000e+00 1.618260301999999928e+00 8.156936949999999964e-01 2.513388186999999885e+00
3.049802043000000129e+00 0.000000000000000000e+00 0.000000000000000000e+00 1.481546438000000077e+00 2.641487382999999856e+00 0.000000000000000000e+00 1.444601784999999916e+00 9.180141579999999690e-01 2.489107881999999883e+00
3.053136258999999963e+00 0.000000000000000000e+00 0.000000000000000000e+00 1.478141128999999943e+00 2.709150922000000072e+00 0.000000000000000000e+00 1.463242224999999896e+00 8.348193099999999811e-01 2.584340775999999895e+00
3.066698618999999848e+00 0.000000000000000000e+00 0.000000000000000000e+00 1.464862525000000026e+00 2.656482743000000202e+00 0.000000000000000000e+00 1.451863703999999977e+00 9.157301220000000352e-01 2.620369045999999980e+00
3.082421231000000095e+00 0.000000000000000000e+00 0.000000000000000000e+00 1.551038643999999911e+00 2.715247613999999921e+00 0.000000000000000000e+00 1.601786963999999980e+00 8.846524559999999759e-01 2.537692760000000103e+00
3.211120257999999783e+00 0.000000000000000000e+00 0.000000000000000000e+00 1.595215196999999918e+00 2.734327544000000110e+00 0.000000000000000000e+00 1.530115568000000037e+00 8.814986270000000346e-01 2.551942406000000219e+00
3.140036293000000089e+00 0.000000000000000000e+00 0.000000000000000000e+00 1.552910323000000092e+00 2.674950765000000175e+00 0.000000000000000000e+00 1.588512938999999902e+00 8.936503740000000251e-01 2.524848927999999937e+00
3.091851310000000019e+00 0.000000000000000000e+00 0.000000000000000000e+00 1.607156800000000052e+00 2.650566033000000044e+00 0.000000000000000000e+00 1.571572418999999998e+00 8.870051429999999959e-01 2.598016545000000121e+00
3.037073862999999818e+00 0.000000000000000000e+00 0.000000000000000000e+00 1.472941161000000054e+00 2.737736723999999899e+00 0.000000000000000000e+00 1.569375632000000076e+00 9.156371199999999710e-01 2.519672748000000073e+00
3.083471203999999855e+00 0.000000000000000000e+00 0.000000000000000000e+00 1.568400062000000039e+00 2.733954824000000006e+00 0.000000000000000000e+00 1.491124027999999990e+00 8.405813429999999808e-01 2.480537138999999947e+00
3.142110753999999950e+00 0.000000000000000000e+00 0.000000000000000000e+00 1.619922051000000085e+00 2.649170917999999819e+00 0.000000000000000000e+00 1.525614403000000063e+00 8.336142130000000483e-01 2.593657024000000089e+00
