2.834870023654355364e+00 1.636709981185428431e+00 1.157329968666650943e+00 2.834870047308710728e+00 3.273419986370879275e+00 2.314659961333323857e+00
2.896399999999999864e+00 1.642139999999999933e+00 1.120910000000000073e+00 1.494799999999999907e+00 8.217400000000000260e-01 2.255539999999999878e+00
2.811929999999999819e+00 1.603410000000000002e+00 1.139750000000000041e+00 1.392970000000000041e+00 8.230100000000000193e-01 2.297800000000000065e+00
2.980290000000000106e+00 1.675959999999999894e+00 1.162560000000000038e+00 1.488799999999999901e+00 8.452399999999999913e-01 2.316850000000000076e+00
2.758500000000000174e+00 1.681959999999999900e+00 1.150660000000000016e+00 1.344119999999999981e+00 8.695500000000000451e-01 2.293019999999999836e+00
2.714179999999999815e+00 1.577599999999999891e+00 1.176260000000000083e+00 1.335480000000000000e+00 2.431880000000000042e+00 7.360000000000000223e-03
2.872900000000000009e+00 1.671240000000000059e+00 1.168360000000000065e+00 2.843609999999999971e+00 5.100000000000000366e-04 2.300000000000000070e-04
2.973409999999999886e+00 1.613410000000000011e+00 1.157899999999999929e+00 4.441489999999999938e+00 2.393330000000000179e+00 7.990000000000000574e-03
2.810690000000000133e+00 1.621739999999999959e+00 1.145350000000000090e+00 2.841009999999999813e+00 3.253070000000000128e+00 2.313159999999999883e+00
2.854909999999999837e+00 1.562000000000000055e+00 1.169119999999999937e+00 2.910509999999999931e+00 1.481999999999999984e-02 2.160000000000000028e-03
2.877479999999999816e+00 1.628090000000000037e+00 1.175929999999999920e+00 2.888339999999999907e+00 1.222999999999999955e-02 7.329999999999999710e-03
2.819389999999999841e+00 1.650530000000000053e+00 1.155960000000000099e+00 1.449710000000000054e+00 2.454909999999999926e+00 2.249999999999999830e-03
2.896770000000000067e+00 1.570000000000000062e+00 1.143629999999999924e+00 4.350929999999999964e+00 7.543400000000000105e-01 2.264520000000000088e+00
2.853009999999999824e+00 1.664020000000000055e+00 1.152379999999999960e+00 4.266309999999999825e+00 2.474860000000000060e+00 4.919999999999999894e-03
2.755949999999999900e+00 1.671340000000000048e+00 1.137129999999999974e+00 2.795170000000000154e+00 7.000000000000000146e-03 1.479999999999999979e-03
2.851420000000000066e+00 1.626889999999999947e+00 1.169759999999999911e+00 1.472890000000000033e+00 8.643800000000000372e-01 2.323620000000000019e+00
2.780860000000000110e+00 1.667790000000000106e+00 1.189869999999999983e+00 2.180000000000000080e-03 2.309999999999999987e-03 9.700000000000000505e-04
2.845130000000000159e+00 1.697480000000000100e+00 1.153200000000000003e+00 1.407620000000000093e+00 2.500680000000000014e+00 9.100000000000000016e-04
2.919570000000000221e+00 1.642619999999999969e+00 1.124500000000000055e+00 2.933260000000000201e+00 3.285359999999999836e+00 2.249890000000000168e+00
2.816819999999999879e+00 1.604649999999999910e+00 1.136149999999999993e+00 2.828990000000000116e+00 3.222980000000000178e+00 2.265169999999999906e+00
2.767520000000000202e+00 1.700039999999999996e+00 1.150360000000000049e+00 4.147899999999999920e+00 8.874600000000000266e-01 2.301899999999999835e+00
2.863500024639931141e+00 1.653239979949768124e+00 1.169019968000037268e+00 2.863500049279948723e+00 3.306489984899515733e+00 2.338039961000011324e+00
2.868599999999999817e+00 1.623170000000000002e+00 1.203889999999999905e+00 1.381809999999999983e+00 8.282699999999999507e-01 2.389289999999999914e+00
2.938950000000000173e+00 1.636209999999999942e+00 1.161380000000000079e+00 1.255000000000000039e-02 7.960000000000000062e-03 1.067000000000000066e-02
2.847669999999999924e+00 1.619099999999999984e+00 1.154730000000000034e+00 2.886649999999999938e+00 1.102999999999999987e-02 1.115999999999999978e-02
2.767339999999999911e+00 1.667790000000000106e+00 1.194220000000000059e+00 7.000000000000000146e-03 1.098999999999999977e-02 2.320000000000000014e-03
2.841909999999999936e+00 1.661280000000000090e+00 1.177019999999999955e+00 7.910000000000000364e-03 7.550000000000000287e-03 4.669999999999999672e-03
2.815819999999999990e+00 1.598470000000000057e+00 1.153340000000000032e+00 2.803700000000000081e+00 1.552000000000000081e-02 5.850000000000000165e-03
2.919509999999999827e+00 1.638169999999999904e+00 1.177890000000000104e+00 2.883830000000000116e+00 3.267529999999999824e+00 2.351859999999999840e+00
2.826849999999999863e+00 1.606919999999999904e+00 1.138230000000000075e+00 2.818680000000000074e+00 3.234960000000000058e+00 2.285909999999999886e+00
2.840539999999999843e+00 1.613120000000000109e+00 1.184770000000000101e+00 2.788139999999999841e+00 3.223129999999999828e+00 2.357060000000000155e+00
2.769859999999999989e+00 1.702469999999999928e+00 1.196039999999999992e+00 1.369920000000000027e+00 2.539969999999999839e+00 1.108999999999999916e-02
2.926969999999999850e+00 1.588580000000000103e+00 1.151929999999999898e+00 2.955369999999999830e+00 3.181700000000000195e+00 2.310620000000000118e+00
2.781149999999999789e+00 1.637610000000000010e+00 1.206830000000000069e+00 2.779999999999999805e+00 3.289629999999999832e+00 2.397969999999999935e+00
2.803370000000000140e+00 1.668840000000000101e+00 1.162760000000000016e+00 1.376360000000000028e+00 8.609400000000000386e-01 2.315479999999999983e+00
2.846140000000000114e+00 1.670940000000000092e+00 1.192909999999999915e+00 4.236970000000000347e+00 2.462720000000000020e+00 6.369999999999999794e-03
2.820910000000000029e+00 1.636460000000000026e+00 1.160639999999999894e+00 4.195409999999999862e+00 2.469510000000000094e+00 2.739999999999999814e-03
2.729600000000000026e+00 1.604319999999999968e+00 1.142609999999999904e+00 2.689750000000000085e+00 3.212410000000000210e+00 2.289039999999999964e+00
2.808689999999999909e+00 1.634479999999999933e+00 1.173769999999999980e+00 2.773050000000000015e+00 3.276180000000000092e+00 2.320969999999999978e+00
2.931680000000000064e+00 1.623520000000000074e+00 1.209030000000000049e+00 4.375469999999999970e+00 2.454499999999999904e+00 1.548000000000000070e-02
2.742830000000000101e+00 1.594640000000000057e+00 1.178870000000000084e+00 4.157409999999999606e+00 2.415750000000000064e+00 6.459999999999999597e-03
2.943259999999999987e+00 1.617010000000000058e+00 1.139550000000000063e+00 2.983629999999999782e+00 3.242379999999999818e+00 2.280219999999999914e+00
2.892140024639994866e+00 1.669779980421128629e+00 1.180709967333294141e+00 2.892140049279902314e+00 3.339549985842279689e+00 2.361419959666656521e+00
2.907599999999999962e+00 1.692350000000000021e+00 1.208299999999999930e+00 1.488050000000000095e+00 2.553230000000000111e+00 1.259000000000000050e-02
2.823669999999999902e+00 1.644530000000000047e+00 1.205899999999999972e+00 1.459400000000000031e+00 2.492459999999999898e+00 2.449999999999999921e-03
2.945460000000000189e+00 1.712990000000000013e+00 1.171669999999999989e+00 4.345579999999999998e+00 8.892299999999999649e-01 2.338459999999999983e+00
2.792110000000000092e+00 1.706530000000000102e+00 1.215519999999999934e+00 2.766010000000000080e+00 3.410660000000000025e+00 2.430769999999999875e+00
2.869990000000000041e+00 1.713740000000000041e+00 1.216749999999999998e+00 1.419000000000000039e+00 9.018500000000000405e-01 2.403979999999999784e+00
2.841019999999999879e+00 1.623380000000000045e+00 1.148719999999999963e+00 2.834999999999999964e+00 1.072999999999999995e-02 8.370000000000000703e-03
2.898480000000000167e+00 1.671259999999999968e+00 1.177019999999999955e+00 4.340429999999999566e+00 8.454300000000000148e-01 2.336730000000000196e+00
2.860770000000000035e+00 1.674569999999999892e+00 1.163310000000000066e+00 4.241019999999999790e+00 2.547410000000000174e+00 3.119999999999999944e-03
2.853930000000000078e+00 1.682539999999999925e+00 1.169529999999999959e+00 4.292659999999999698e+00 2.492799999999999905e+00 4.830000000000000092e-03
2.930750000000000188e+00 1.680949999999999944e+00 1.158209999999999962e+00 4.369229999999999947e+00 8.874300000000000521e-01 2.325299999999999923e+00
2.918499999999999872e+00 1.729810000000000070e+00 1.165750000000000064e+00 1.456000000000000003e-02 4.919999999999999894e-03 1.037000000000000074e-02
2.977679999999999882e+00 1.644949999999999912e+00 1.213989999999999903e+00 3.008100000000000218e+00 3.313649999999999984e+00 2.424059999999999881e+00
2.895059999999999967e+00 1.699759999999999938e+00 1.172549999999999981e+00 2.976480000000000015e+00 3.404430000000000067e+00 2.375449999999999839e+00
2.822690000000000143e+00 1.687889999999999890e+00 1.190960000000000019e+00 2.827970000000000095e+00 3.355100000000000193e+00 2.377219999999999889e+00
2.802880000000000038e+00 1.666949999999999932e+00 1.159229999999999983e+00 5.568660000000000387e+00 3.355379999999999807e+00 2.309270000000000156e+00
2.868320000000000203e+00 1.702269999999999950e+00 1.174690000000000012e+00 4.281349999999999767e+00 9.104900000000000215e-01 2.348559999999999981e+00
2.981489999999999974e+00 1.702870000000000106e+00 1.158050000000000024e+00 4.465469999999999828e+00 8.684800000000000297e-01 2.313270000000000159e+00
2.835830000000000073e+00 1.592459999999999987e+00 1.160630000000000051e+00 2.879879999999999995e+00 3.187720000000000109e+00 2.313099999999999934e+00
2.908479999999999954e+00 1.711400000000000032e+00 1.190120000000000067e+00 2.918849999999999945e+00 3.413829999999999920e+00 2.385510000000000019e+00
2.959750000000000103e+00 1.675559999999999938e+00 1.226099999999999968e+00 1.624000000000000096e-02 4.599999999999999922e-03 2.269999999999999882e-03
4.597510129903700893e+00 2.654369774999860265e+00 -2.100000417710770322e-07 1.532500064325970301e+00 8.847899380815593684e-01 6.256399300000975439e-01
4.603080000000000283e+00 2.725509999999999877e+00 1.399999999999999877e-04 1.527279999999999971e+00 9.266400000000000192e-01 6.294999999999999485e-01
1.657980000000000009e+00 8.688700000000000312e-01 2.511769999999999836e+00 1.606319999999999970e+00 8.679799999999999738e-01 6.296800000000000175e-01
1.590859999999999941e+00 8.908899999999999597e-01 2.525040000000000173e+00 1.554720000000000102e+00 8.714899999999999869e-01 6.423699999999999966e-01
2.975820000000000132e+00 3.655720000000000081e+00 2.513970000000000038e+00 1.493900000000000006e+00 9.244099999999999540e-01 6.353900000000000103e-01
4.424979999999999691e+00 2.730370000000000186e+00 1.238999999999999997e-02 1.484390000000000098e+00 8.944800000000000528e-01 6.433299999999999574e-01
4.583549999999999791e+00 8.295099999999999696e-01 2.508010000000000073e+00 1.534140000000000059e+00 8.741600000000000481e-01 6.299700000000000299e-01
1.564999999999999947e+00 2.638640000000000096e+00 5.839999999999999705e-03 1.542059999999999986e+00 8.992099999999999538e-01 6.174699999999999633e-01
6.145489999999999675e+00 3.522920000000000051e+00 2.567089999999999872e+00 1.530669999999999975e+00 8.885499999999999510e-01 6.422499999999999876e-01
1.599779999999999980e+00 2.599149999999999849e+00 9.300000000000000541e-04 1.526920000000000055e+00 8.756500000000000394e-01 6.413600000000000412e-01
1.596139999999999892e+00 9.559900000000000064e-01 2.500570000000000181e+00 1.593029999999999946e+00 9.170899999999999608e-01 6.277500000000000302e-01
3.122110000000000163e+00 3.567219999999999835e+00 2.525279999999999969e+00 1.537260000000000071e+00 8.953499999999999792e-01 6.328000000000000291e-01
1.574549999999999894e+00 2.583159999999999901e+00 5.100000000000000366e-04 1.551960000000000006e+00 8.618000000000000105e-01 6.333800000000000541e-01
3.009949999999999903e+00 1.391000000000000049e-02 9.190000000000000252e-03 1.521209999999999951e+00 8.759799999999999809e-01 6.187000000000000277e-01
1.584719999999999906e+00 9.634399999999999631e-01 2.515050000000000008e+00 1.538850000000000051e+00 9.200899999999999634e-01 6.180299999999999683e-01
3.017149999999999999e+00 5.239999999999999866e-03 4.680000000000000132e-03 1.529700000000000060e+00 8.358400000000000274e-01 6.417699999999999516e-01
1.536540000000000017e+00 2.593750000000000000e+00 4.590000000000000330e-03 1.526129999999999987e+00 8.689099999999999602e-01 6.368800000000000017e-01
4.441819999999999879e+00 2.706589999999999829e+00 7.420000000000000380e-03 1.488320000000000087e+00 8.840700000000000225e-01 6.299799999999999844e-01
1.556999999999999940e+00 2.605469999999999953e+00 2.589999999999999854e-03 1.554119999999999946e+00 8.638700000000000268e-01 6.085599999999999898e-01
4.389630000000000365e+00 8.487299999999999844e-01 2.483649999999999913e+00 1.468970000000000109e+00 8.704300000000000370e-01 6.190200000000000147e-01
4.773550000000000182e+00 2.583790000000000031e+00 4.029999999999999728e-03 1.591040000000000010e+00 8.389900000000000135e-01 5.987700000000000244e-01
4.643950130769637141e+00 2.681179773499835051e+00 -2.120000212133096728e-07 1.547980064818915258e+00 8.937299376994098932e-01 6.319599293333680867e-01
1.473659999999999970e+00 2.691600000000000215e+00 3.989999999999999623e-03 1.517640000000000100e+00 8.800200000000000244e-01 6.050699999999999967e-01
1.487430000000000030e+00 2.647899999999999920e+00 3.400000000000000244e-04 1.492830000000000101e+00 8.991799999999999793e-01 6.260900000000000354e-01
1.525609999999999911e+00 8.791799999999999615e-01 2.582479999999999887e+00 1.535670000000000091e+00 8.937899999999999734e-01 6.534499999999999753e-01
4.723279999999999923e+00 9.156100000000000350e-01 2.570110000000000117e+00 1.594030000000000058e+00 8.994600000000000373e-01 6.451599999999999557e-01
3.158399999999999874e+00 7.400000000000000328e-03 5.669999999999999693e-03 1.617860000000000076e+00 9.125499999999999723e-01 6.097299999999999942e-01
3.023610000000000131e+00 3.800000000000000209e-04 4.699999999999999859e-04 1.517980000000000107e+00 8.858099999999999863e-01 6.458899999999999642e-01
4.597599999999999909e+00 2.700769999999999893e+00 1.299999999999999886e-04 1.517830000000000013e+00 8.824800000000000422e-01 6.223800000000000443e-01
4.869100000000000428e+00 8.626000000000000334e-01 2.532639999999999780e+00 1.633580000000000032e+00 9.003299999999999637e-01 6.443100000000000493e-01
1.506939999999999946e+00 2.622749999999999915e+00 4.080000000000000293e-03 1.527009999999999978e+00 8.912799999999999612e-01 6.188200000000000367e-01
1.552580000000000071e+00 2.626689999999999969e+00 7.649999999999999682e-03 1.557770000000000099e+00 8.722199999999999953e-01 6.299099999999999699e-01
4.695310000000000095e+00 2.638100000000000112e+00 3.200000000000000262e-04 1.581339999999999968e+00 8.789299999999999891e-01 6.542400000000000437e-01
6.147949999999999804e+00 3.728650000000000020e+00 2.547120000000000051e+00 1.537560000000000038e+00 9.370500000000000496e-01 6.232600000000000362e-01
1.470930000000000071e+00 9.599999999999999645e-01 2.503049999999999997e+00 1.530049999999999910e+00 9.309500000000000552e-01 6.260000000000000009e-01
4.659609999999999808e+00 2.626689999999999969e+00 1.188999999999999953e-02 1.573099999999999943e+00 8.788700000000000401e-01 6.252400000000000180e-01
1.659520000000000106e+00 2.716819999999999791e+00 6.139999999999999625e-03 1.612889999999999935e+00 9.016699999999999715e-01 6.298500000000000210e-01
6.278599999999999959e+00 3.486559999999999881e+00 2.548000000000000043e+00 1.574040000000000106e+00 8.690299999999999692e-01 6.358899999999999553e-01
3.224530000000000118e+00 3.574840000000000018e+00 2.476890000000000036e+00 1.587059999999999915e+00 8.981400000000000494e-01 6.224600000000000133e-01
1.622670000000000057e+00 2.695720000000000116e+00 1.366999999999999986e-02 1.563490000000000046e+00 9.005300000000000527e-01 6.379399999999999515e-01
3.057960000000000012e+00 3.457370000000000054e+00 2.520820000000000061e+00 1.560550000000000104e+00 8.619499999999999940e-01 6.304300000000000459e-01
4.536120000000000374e+00 2.700349999999999806e+00 5.000000000000000240e-05 1.513840000000000074e+00 9.104499999999999815e-01 6.459700000000000442e-01
4.690390132502086473e+00 2.707999770499808445e+00 -2.150002108678708580e-07 1.563460065600536186e+00 9.026699370529626121e-01 6.382799283333037144e-01
4.611229999999999940e+00 8.446099999999999719e-01 2.554450000000000109e+00 1.531740000000000101e+00 8.854699999999999793e-01 6.448800000000000088e-01
1.539560000000000040e+00 2.629150000000000098e+00 2.439999999999999895e-03 1.548070000000000057e+00 8.772799999999999487e-01 6.179000000000000048e-01
3.026499999999999968e+00 3.517830000000000013e+00 2.580130000000000035e+00 1.527530000000000054e+00 8.898200000000000554e-01 6.422299999999999676e-01
6.438959999999999795e+00 3.761350000000000193e+00 2.567779999999999951e+00 1.601420000000000066e+00 9.373799999999999910e-01 6.424800000000000511e-01
6.969999999999999633e-03 1.170000000000000033e-03 1.440000000000000091e-03 1.525160000000000071e+00 9.019399999999999640e-01 6.337099999999999955e-01
4.806110000000000326e+00 2.669230000000000214e+00 1.830000000000000029e-03 1.606309999999999905e+00 8.736199999999999521e-01 6.367000000000000437e-01
3.150469999999999882e+00 3.449390000000000178e+00 2.566370000000000040e+00 1.579960000000000031e+00 8.645199999999999552e-01 6.405399999999999983e-01
6.044789999999999885e+00 3.490790000000000060e+00 2.543849999999999945e+00 1.516690000000000094e+00 8.774199999999999777e-01 6.322200000000000042e-01
4.671630000000000393e+00 2.754329999999999945e+00 1.183999999999999983e-02 1.564210000000000100e+00 9.168199999999999683e-01 6.407000000000000473e-01
6.252410000000000245e+00 3.485759999999999970e+00 2.512049999999999894e+00 1.576459999999999972e+00 8.842799999999999550e-01 6.223199999999999843e-01
4.490750000000000242e+00 9.184099999999999486e-01 2.485209999999999919e+00 1.497179999999999955e+00 8.775300000000000322e-01 6.306599999999999984e-01
3.050710000000000033e+00 4.150000000000000043e-03 3.400000000000000244e-04 1.497020000000000017e+00 8.995800000000000463e-01 6.448399999999999688e-01
2.399999999999999790e-03 8.800000000000000313e-04 2.010000000000000068e-03 1.497209999999999930e+00 8.950500000000000123e-01 6.462999999999999856e-01
6.870000000000000238e-03 5.960000000000000020e-03 5.360000000000000181e-03 1.559490000000000043e+00 8.987300000000000288e-01 6.368800000000000017e-01
4.803630000000000067e+00 2.730859999999999843e+00 1.529999999999999893e-03 1.584699999999999998e+00 9.025400000000000089e-01 6.382400000000000295e-01
1.592689999999999939e+00 9.041200000000000347e-01 2.513020000000000032e+00 1.574300000000000033e+00 8.962999999999999856e-01 6.353900000000000103e-01
1.607969999999999899e+00 2.648600000000000065e+00 3.510000000000000099e-03 1.567749999999999977e+00 8.842600000000000460e-01 6.494400000000000173e-01
1.579369999999999941e+00 9.170399999999999663e-01 2.510909999999999975e+00 1.520000000000000018e+00 9.128300000000000303e-01 6.296599999999999975e-01
3.079320000000000057e+00 1.127000000000000050e-02 1.502999999999999996e-02 1.520939999999999959e+00 8.987300000000000288e-01 6.168799999999999839e-01
6.281749999999999723e+00 3.479220000000000201e+00 2.592130000000000045e+00 1.578819999999999890e+00 8.734199999999999742e-01 6.623599999999999488e-01
