-1.452449754000000048e+01
-1.447574041000000022e+01
-1.442820749000000013e+01
-1.452892156999999962e+01
-1.450471583999999936e+01
-1.446128722000000089e+01
-1.453201840999999916e+01
-1.447410876000000002e+01
-1.440329142000000040e+01
-1.446720995999999992e+01
-1.447248307999999994e+01
-1.446810113000000086e+01
-1.444748268999999929e+01
-1.452384503000000038e+01
-1.448542272999999980e+01
-1.448376936999999920e+01
-1.451278985000000077e+01
-1.452673906000000059e+01
-1.447989072999999927e+01
-1.437502792999999990e+01
-1.450858812999999969e+01
-1.454953811000000030e+01
-1.451197130000000080e+01
-1.447752114999999939e+01
-1.453923643000000077e+01
-1.447677320999999928e+01
-1.454276538000000052e+01
-1.444847691000000012e+01
-1.450494654000000061e+01
-1.444810786999999941e+01
-1.451838852000000024e+01
-1.451489779999999996e+01
-1.450709997999999956e+01
-1.447953213999999988e+01
-1.453236704000000046e+01
-1.452361765000000027e+01
-1.451074919000000030e+01
-1.443557048000000087e+01
-1.452524391000000037e+01
-1.452666340999999939e+01
-1.446177671999999959e+01
-1.448066013000000041e+01
-1.454971772000000030e+01
-1.446675364999999935e+01
-1.451223047000000044e+01
-1.450140251999999919e+01
-1.448473438999999985e+01
-1.448831185000000055e+01
-1.450617109999999954e+01
-1.454106329999999936e+01
-1.452485438000000073e+01
-1.454034421999999971e+01
-1.453527408000000065e+01
-1.451723548999999913e+01
-1.446650915000000026e+01
-1.450407520999999988e+01
-1.452546732000000063e+01
-1.449377592999999997e+01
-1.453253894000000024e+01
-1.450666692000000069e+01
-1.448559067000000056e+01
-1.450578186999999986e+01
-1.447078001000000036e+01
-1.481748507000000004e+01
-1.481086198000000032e+01
-1.478656175999999967e+01
-1.474836954999999961e+01
-1.481563236000000039e+01
-1.477468692999999966e+01
-1.480555872999999956e+01
-1.476056668999999921e+01
-1.483502990999999938e+01
-1.477418590000000087e+01
-1.482854159999999943e+01
-1.480660914999999989e+01
-1.476555478000000043e+01
-1.469745443999999956e+01
-1.480767359999999933e+01
-1.473569915999999935e+01
-1.479278313999999916e+01
-1.479022679999999923e+01
-1.469225600999999948e+01
-1.470711801000000030e+01
-1.475196367999999936e+01
-1.484367426999999928e+01
-1.476199785999999925e+01
-1.478921290999999982e+01
-1.482431509000000069e+01
-1.482669308999999913e+01
-1.480678741000000009e+01
-1.476204901000000014e+01
-1.482978063000000013e+01
-1.478576531000000038e+01
-1.476889663000000041e+01
-1.478698834000000062e+01
-1.482450125000000085e+01
-1.482221752000000059e+01
-1.481670871000000034e+01
-1.476711981999999956e+01
-1.482112002999999945e+01
-1.483312684000000026e+01
-1.482014505000000071e+01
-1.482740554999999993e+01
-1.482254404999999942e+01
-1.482045515999999985e+01
-1.484725876999999983e+01
-1.481145771999999994e+01
-1.480359684999999992e+01
-1.479978874000000033e+01
-1.478759377000000086e+01
-1.480567206999999996e+01
-1.482996480000000084e+01
-1.482964682999999972e+01
-1.481596681999999987e+01
-1.481218072999999968e+01
-1.480248235000000001e+01
-1.478117001999999935e+01
-1.481194426999999969e+01
-1.478726963000000083e+01
-1.483695166000000043e+01
-1.480490044999999988e+01
-1.484065153000000059e+01
-1.481787212999999959e+01
-1.482018311999999938e+01
-1.480559271999999993e+01
-1.482482079000000041e+01
