0.000000000000000000e+00 0.000000000000000000e+00 0.000000000000000000e+00 0.000000000000000000e+00 0.000000000000000000e+00 0.000000000000000000e+00
2.179800000000000140e-02 1.816900000000000112e-02 4.572400000000000075e-02 -2.179800000000000140e-02 -1.816900000000000112e-02 -4.572400000000000075e-02
-2.059100000000000166e-02 9.957399999999999585e-02 8.244200000000000139e-02 2.059100000000000166e-02 -9.957399999999999585e-02 -8.244200000000000139e-02
-9.586000000000000076e-02 2.986899999999999972e-02 -4.965200000000000169e-02 9.586000000000000076e-02 -2.986899999999999972e-02 4.965200000000000169e-02
4.390000000000000152e-02 3.810800000000000298e-02 -6.272899999999999310e-02 -4.390000000000000152e-02 -3.810800000000000298e-02 6.272899999999999310e-02
1.133740000000000026e-01 8.520700000000000496e-02 7.794600000000000140e-02 -1.133740000000000026e-01 -8.520700000000000496e-02 -7.794600000000000140e-02
-1.915999999999999995e-02 -2.348599999999999993e-02 1.586999999999999869e-02 1.915999999999999995e-02 2.348599999999999993e-02 -1.586999999999999869e-02
3.483200000000000185e-02 1.810399999999999857e-02 1.248380000000000045e-01 -3.483200000000000185e-02 -1.810399999999999857e-02 -1.248380000000000045e-01
-3.527399999999999980e-02 2.651200000000000084e-02 1.129450000000000037e-01 3.527399999999999980e-02 -2.651200000000000084e-02 -1.129450000000000037e-01
-6.410100000000000520e-02 1.987530000000000130e-01 6.031899999999999762e-02 6.410100000000000520e-02 -1.987530000000000130e-01 -6.031899999999999762e-02
2.768199999999999827e-02 7.408299999999999608e-02 7.125399999999999789e-02 -2.768199999999999827e-02 -7.408299999999999608e-02 -7.125399999999999789e-02
1.251889999999999947e-01 -8.617400000000000060e-02 -4.959999999999999826e-02 -1.251889999999999947e-01 8.617400000000000060e-02 4.959999999999999826e-02
-3.387699999999999739e-02 9.721999999999999739e-03 -1.075119999999999965e-01 3.387699999999999739e-02 -9.721999999999999739e-03 1.075119999999999965e-01
-5.087599999999999761e-02 -1.470899999999999985e-02 4.460200000000000276e-02 5.087599999999999761e-02 1.470899999999999985e-02 -4.460200000000000276e-02
-7.886100000000000054e-02 3.677000000000000147e-03 1.507509999999999961e-01 7.886100000000000054e-02 -3.677000000000000147e-03 -1.507509999999999961e-01
1.871359999999999968e-01 1.071470000000000061e-01 -1.595129999999999881e-01 -1.871359999999999968e-01 -1.071470000000000061e-01 1.595129999999999881e-01
6.491000000000000242e-03 2.414300000000000126e-02 -1.441999999999999922e-03 -6.491000000000000242e-03 -2.414300000000000126e-02 1.441999999999999922e-03
1.161579999999999974e-01 1.314599999999999970e-02 5.338799999999999796e-02 -1.161579999999999974e-01 -1.314599999999999970e-02 -5.338799999999999796e-02
1.132400000000000073e-02 -4.283999999999999614e-03 -1.234999999999999987e-03 -1.132400000000000073e-02 4.283999999999999614e-03 1.234999999999999987e-03
1.379999999999999933e-03 1.282699999999999986e-02 -6.890899999999999803e-02 -1.379999999999999933e-03 -1.282699999999999986e-02 6.890899999999999803e-02
4.401900000000000257e-02 -6.337700000000000278e-02 -9.969999999999999696e-03 -4.401900000000000257e-02 6.337700000000000278e-02 9.969999999999999696e-03
0.000000000000000000e+00 0.000000000000000000e+00 0.000000000000000000e+00 0.000000000000000000e+00 0.000000000000000000e+00 0.000000000000000000e+00
-8.351100000000000190e-02 7.133000000000000451e-02 -9.352100000000000690e-02 8.351100000000000190e-02 -7.133000000000000451e-02 9.352100000000000690e-02
-9.827000000000000665e-03 1.039420000000000066e-01 2.950799999999999951e-02 9.827000000000000665e-03 -1.039420000000000066e-01 -2.950799999999999951e-02
9.489699999999999525e-02 2.314460000000000128e-01 1.827539999999999998e-01 -9.489699999999999525e-02 -2.314460000000000128e-01 -1.827539999999999998e-01
1.363240000000000007e-01 2.692699999999999955e-02 -5.181999999999999974e-03 -1.363240000000000007e-01 -2.692699999999999955e-02 5.181999999999999974e-03
7.698299999999999588e-02 -5.040700000000000042e-02 -5.476400000000000018e-02 -7.698299999999999588e-02 5.040700000000000042e-02 5.476400000000000018e-02
7.755299999999999694e-02 1.633489999999999942e-01 1.024090000000000000e-01 -7.755299999999999694e-02 -1.633489999999999942e-01 -1.024090000000000000e-01
-1.595299999999999843e-02 -4.145800000000000179e-02 -1.894399999999999903e-02 1.595299999999999843e-02 4.145800000000000179e-02 1.894399999999999903e-02
-8.705300000000000538e-02 1.007229999999999931e-01 3.651100000000000179e-02 8.705300000000000538e-02 -1.007229999999999931e-01 -3.651100000000000179e-02
2.508600000000000066e-02 -4.938800000000000134e-02 -8.251300000000000301e-02 -2.508600000000000066e-02 4.938800000000000134e-02 8.251300000000000301e-02
-4.351200000000000206e-02 -1.165000000000000020e-03 1.328900000000000046e-02 4.351200000000000206e-02 1.165000000000000020e-03 -1.328900000000000046e-02
1.619100000000000053e-02 1.696999999999999941e-03 1.959599999999999884e-02 -1.619100000000000053e-02 -1.696999999999999941e-03 -1.959599999999999884e-02
9.213300000000000656e-02 6.262399999999999911e-02 -9.596200000000000563e-02 -9.213300000000000656e-02 -6.262399999999999911e-02 9.596200000000000563e-02
2.063299999999999856e-02 7.217000000000000325e-03 -8.304100000000000370e-02 -2.063299999999999856e-02 -7.217000000000000325e-03 8.304100000000000370e-02
-1.655399999999999927e-02 1.559999999999999972e-04 4.318500000000000116e-02 1.655399999999999927e-02 -1.559999999999999972e-04 -4.318500000000000116e-02
-8.991000000000000381e-02 -4.590199999999999836e-02 6.897499999999999465e-02 8.991000000000000381e-02 4.590199999999999836e-02 -6.897499999999999465e-02
1.071249999999999980e-01 -4.565199999999999814e-02 -3.315999999999999937e-03 -1.071249999999999980e-01 4.565199999999999814e-02 3.315999999999999937e-03
7.559899999999999953e-02 -3.270200000000000190e-02 -1.126619999999999983e-01 -7.559899999999999953e-02 3.270200000000000190e-02 1.126619999999999983e-01
-6.718899999999999872e-02 -6.753800000000000081e-02 3.376000000000000095e-03 6.718899999999999872e-02 6.753800000000000081e-02 -3.376000000000000095e-03
-4.580000000000000195e-04 -2.056179999999999952e-01 -4.089600000000000180e-02 4.580000000000000195e-04 2.056179999999999952e-01 4.089600000000000180e-02
-1.181409999999999960e-01 3.397100000000000120e-02 -1.395000000000000059e-02 1.181409999999999960e-01 -3.397100000000000120e-02 1.395000000000000059e-02
0.000000000000000000e+00 0.000000000000000000e+00 0.000000000000000000e+00 0.000000000000000000e+00 0.000000000000000000e+00 0.000000000000000000e+00
7.134000000000000064e-02 -3.528300000000000186e-02 8.975099999999999745e-02 -7.134000000000000064e-02 3.528300000000000186e-02 -8.975099999999999745e-02
3.759200000000000041e-02 3.619800000000000101e-02 1.056999999999999953e-02 -3.759200000000000041e-02 -3.619800000000000101e-02 -1.056999999999999953e-02
-1.444830000000000003e-01 6.997100000000000541e-02 -7.826900000000000523e-02 1.444830000000000003e-01 -6.997100000000000541e-02 7.826900000000000523e-02
6.858999999999999646e-03 -5.813999999999999724e-03 5.800000000000000034e-04 -6.858999999999999646e-03 5.813999999999999724e-03 -5.800000000000000034e-04
1.363560000000000050e-01 4.740899999999999975e-02 -6.874099999999999655e-02 -1.363560000000000050e-01 -4.740899999999999975e-02 6.874099999999999655e-02
-1.669049999999999978e-01 1.500980000000000092e-01 5.159799999999999803e-02 1.669049999999999978e-01 -1.500980000000000092e-01 -5.159799999999999803e-02
-6.325799999999999479e-02 9.840000000000000135e-02 -7.507900000000000684e-02 6.325799999999999479e-02 -9.840000000000000135e-02 7.507900000000000684e-02
-1.097520000000000023e-01 4.821399999999999991e-02 5.268599999999999672e-02 1.097520000000000023e-01 -4.821399999999999991e-02 -5.268599999999999672e-02
-2.377999999999999906e-03 2.827000000000000086e-03 4.553000000000000103e-02 2.377999999999999906e-03 -2.827000000000000086e-03 -4.553000000000000103e-02
-1.442769999999999886e-01 9.373700000000000088e-02 -7.969000000000000389e-03 1.442769999999999886e-01 -9.373700000000000088e-02 7.969000000000000389e-03
4.157700000000000284e-02 -3.281400000000000289e-02 1.923000000000000013e-03 -4.157700000000000284e-02 3.281400000000000289e-02 -1.923000000000000013e-03
8.686199999999999477e-02 6.326400000000000079e-02 -3.729600000000000276e-02 -8.686199999999999477e-02 -6.326400000000000079e-02 3.729600000000000276e-02
-1.789999999999999925e-02 -2.157699999999999896e-02 9.544600000000000306e-02 1.789999999999999925e-02 2.157699999999999896e-02 -9.544600000000000306e-02
-7.000699999999999978e-02 -9.288200000000000622e-02 -1.427699999999999976e-02 7.000699999999999978e-02 9.288200000000000622e-02 1.427699999999999976e-02
-1.945520000000000027e-01 7.877599999999999880e-02 -8.075400000000000633e-02 1.945520000000000027e-01 -7.877599999999999880e-02 8.075400000000000633e-02
-9.299300000000000621e-02 3.938400000000000234e-02 -3.810499999999999998e-02 9.299300000000000621e-02 -3.938400000000000234e-02 3.810499999999999998e-02
-1.102999999999999987e-02 1.134399999999999992e-02 -1.046000000000000055e-02 1.102999999999999987e-02 -1.134399999999999992e-02 1.046000000000000055e-02
1.021569999999999978e-01 -4.825000000000000122e-02 -4.749899999999999956e-02 -1.021569999999999978e-01 4.825000000000000122e-02 4.749899999999999956e-02
1.212799999999999989e-02 -3.083599999999999883e-02 2.393999999999999861e-03 -1.212799999999999989e-02 3.083599999999999883e-02 -2.393999999999999861e-03
3.582199999999999968e-02 -7.276999999999999615e-03 -4.350300000000000000e-02 -3.582199999999999968e-02 7.276999999999999615e-03 4.350300000000000000e-02
9.999999999999982607e-07 -4.893956413136597148e-14 -3.360516586444797416e-14 -9.999999999999982607e-07 4.893956413136597148e-14 3.360516586444797416e-14
1.638680000000000136e-01 -9.591500000000000026e-02 2.056749999999999967e-01 -1.638680000000000136e-01 9.591500000000000026e-02 -2.056749999999999967e-01
2.902199999999999780e-01 3.492259999999999809e-01 -3.681899999999999756e-02 -2.902199999999999780e-01 -3.492259999999999809e-01 3.681899999999999756e-02
2.348560000000000092e-01 4.499549999999999939e-01 -1.452400000000000080e-01 -2.348560000000000092e-01 -4.499549999999999939e-01 1.452400000000000080e-01
-1.211679999999999979e-01 2.580109999999999904e-01 1.158330000000000054e-01 1.211679999999999979e-01 -2.580109999999999904e-01 -1.158330000000000054e-01
-1.119939999999999963e-01 -5.294149999999999689e-01 -4.564489999999999936e-01 1.119939999999999963e-01 5.294149999999999689e-01 4.564489999999999936e-01
2.203730000000000133e-01 -1.731679999999999886e-01 -9.655000000000000387e-03 -2.203730000000000133e-01 1.731679999999999886e-01 9.655000000000000387e-03
-8.819100000000000550e-02 4.312300000000000022e-01 3.709879999999999844e-01 8.819100000000000550e-02 -4.312300000000000022e-01 -3.709879999999999844e-01
-1.494340000000000113e-01 -7.675999999999999664e-03 -9.435000000000000331e-02 1.494340000000000113e-01 7.675999999999999664e-03 9.435000000000000331e-02
-1.635500000000000148e-02 2.695779999999999843e-01 -3.820669999999999900e-01 1.635500000000000148e-02 -2.695779999999999843e-01 3.820669999999999900e-01
2.534099999999999894e-02 -8.051099999999999923e-02 3.500139999999999918e-01 -2.534099999999999894e-02 8.051099999999999923e-02 -3.500139999999999918e-01
-6.387800000000000422e-02 2.797379999999999867e-01 -8.515300000000000646e-02 6.387800000000000422e-02 -2.797379999999999867e-01 8.515300000000000646e-02
2.044299999999999937e-02 4.442889999999999895e-01 1.213960000000000039e-01 -2.044299999999999937e-02 -4.442889999999999895e-01 -1.213960000000000039e-01
9.176299999999999735e-02 1.115339999999999943e-01 -8.062019999999999742e-01 -9.176299999999999735e-02 -1.115339999999999943e-01 8.062019999999999742e-01
7.392400000000000360e-02 -1.841740000000000044e-01 -1.828940000000000010e-01 -7.392400000000000360e-02 1.841740000000000044e-01 1.828940000000000010e-01
3.105829999999999980e-01 -3.705910000000000037e-01 -3.748920000000000030e-01 -3.105829999999999980e-01 3.705910000000000037e-01 3.748920000000000030e-01
-2.164639999999999898e-01 4.529610000000000025e-01 -3.659310000000000063e-01 2.164639999999999898e-01 -4.529610000000000025e-01 3.659310000000000063e-01
-2.410980000000000067e-01 -5.344410000000000549e-01 -3.328349999999999920e-01 2.410980000000000067e-01 5.344410000000000549e-01 3.328349999999999920e-01
4.527669999999999750e-01 6.248299999999999688e-02 1.433770000000000044e-01 -4.527669999999999750e-01 -6.248299999999999688e-02 -1.433770000000000044e-01
-2.746469999999999745e-01 -2.656629999999999825e-01 -2.384330000000000060e-01 2.746469999999999745e-01 2.656629999999999825e-01 2.384330000000000060e-01
2.059249999999999969e-01 2.533590000000000009e-01 6.158000000000000279e-03 -2.059249999999999969e-01 -2.533590000000000009e-01 -6.158000000000000279e-03
0.000000000000000000e+00 0.000000000000000000e+00 0.000000000000000000e+00 0.000000000000000000e+00 0.000000000000000000e+00 0.000000000000000000e+00
2.977300000000000085e-02 -3.560320000000000151e-01 6.790000000000000202e-02 -2.977300000000000085e-02 3.560320000000000151e-01 -6.790000000000000202e-02
-1.850169999999999870e-01 3.589200000000000029e-02 -5.422050000000000480e-01 1.850169999999999870e-01 -3.589200000000000029e-02 5.422050000000000480e-01
-2.249200000000000088e-01 1.335619999999999863e-01 6.506999999999999763e-03 2.249200000000000088e-01 -1.335619999999999863e-01 -6.506999999999999763e-03
1.743659999999999932e-01 -2.137799999999999978e-01 5.868400000000000005e-02 -1.743659999999999932e-01 2.137799999999999978e-01 -5.868400000000000005e-02
3.836519999999999930e-01 -5.694199999999999956e-02 2.250550000000000050e-01 -3.836519999999999930e-01 5.694199999999999956e-02 -2.250550000000000050e-01
1.119040000000000035e-01 2.592409999999999992e-01 -5.326180000000000359e-01 -1.119040000000000035e-01 -2.592409999999999992e-01 5.326180000000000359e-01
-3.374900000000000122e-01 -2.666740000000000221e-01 -9.377399999999999625e-02 3.374900000000000122e-01 2.666740000000000221e-01 9.377399999999999625e-02
2.086729999999999974e-01 -2.516979999999999773e-01 3.672690000000000121e-01 -2.086729999999999974e-01 2.516979999999999773e-01 -3.672690000000000121e-01
9.015900000000000303e-02 3.204069999999999974e-01 -3.129779999999999784e-01 -9.015900000000000303e-02 -3.204069999999999974e-01 3.129779999999999784e-01
3.275290000000000146e-01 -2.458499999999999922e-02 -2.473519999999999885e-01 -3.275290000000000146e-01 2.458499999999999922e-02 2.473519999999999885e-01
2.546209999999999862e-01 2.611829999999999985e-01 -1.443429999999999991e-01 -2.546209999999999862e-01 -2.611829999999999985e-01 1.443429999999999991e-01
-1.339299999999999935e-01 7.321099999999999830e-02 -7.961799999999999433e-02 1.339299999999999935e-01 -7.321099999999999830e-02 7.961799999999999433e-02
-1.366410000000000124e-01 2.191900000000000098e-02 3.891910000000000092e-01 1.366410000000000124e-01 -2.191900000000000098e-02 -3.891910000000000092e-01
6.083650000000000446e-01 1.925689999999999902e-01 -1.089230000000000059e-01 -6.083650000000000446e-01 -1.925689999999999902e-01 1.089230000000000059e-01
1.246939999999999993e-01 3.584199999999999886e-02 1.363090000000000135e-01 -1.246939999999999993e-01 -3.584199999999999886e-02 -1.363090000000000135e-01
3.593080000000000163e-01 2.749800000000000161e-02 -1.048270000000000035e-01 -3.593080000000000163e-01 -2.749800000000000161e-02 1.048270000000000035e-01
4.957099999999999701e-02 2.615540000000000087e-01 4.412090000000000178e-01 -4.957099999999999701e-02 -2.615540000000000087e-01 -4.412090000000000178e-01
-2.597019999999999884e-01 8.047799999999999399e-02 1.459000000000000019e-01 2.597019999999999884e-01 -8.047799999999999399e-02 -1.459000000000000019e-01
-2.727780000000000205e-01 1.530150000000000121e-01 5.290000000000000258e-02 2.727780000000000205e-01 -1.530150000000000121e-01 -5.290000000000000258e-02
2.258900000000000144e-02 -1.492880000000000040e-01 -2.629859999999999975e-01 -2.258900000000000144e-02 1.492880000000000040e-01 2.629859999999999975e-01
0.000000000000000000e+00 0.000000000000000000e+00 0.000000000000000000e+00 0.000000000000000000e+00 0.000000000000000000e+00 0.000000000000000000e+00
3.109270000000000089e-01 -3.468789999999999929e-01 -9.536899999999999544e-02 -3.109270000000000089e-01 3.468789999999999929e-01 9.536899999999999544e-02
7.779000000000000324e-03 1.815559999999999952e-01 -5.175899999999999945e-02 -7.779000000000000324e-03 -1.815559999999999952e-01 5.175899999999999945e-02
-7.917499999999999538e-02 3.166880000000000250e-01 -3.085129999999999817e-01 7.917499999999999538e-02 -3.166880000000000250e-01 3.085129999999999817e-01
5.810499999999999693e-02 2.543199999999999975e-02 1.157480000000000037e-01 -5.810499999999999693e-02 -2.543199999999999975e-02 -1.157480000000000037e-01
-2.662450000000000094e-01 -3.702119999999999855e-01 -9.280800000000000161e-02 2.662450000000000094e-01 3.702119999999999855e-01 9.280800000000000161e-02
4.053999999999999965e-02 1.168649999999999967e-01 2.135700000000000098e-01 -4.053999999999999965e-02 -1.168649999999999967e-01 -2.135700000000000098e-01
-4.128999999999999858e-03 1.603269999999999973e-01 -1.222110000000000002e-01 4.128999999999999858e-03 -1.603269999999999973e-01 1.222110000000000002e-01
7.502899999999999847e-02 1.904689999999999994e-01 -1.995689999999999964e-01 -7.502899999999999847e-02 -1.904689999999999994e-01 1.995689999999999964e-01
-3.480699999999999766e-02 -2.482699999999999838e-02 3.048000000000000015e-02 3.480699999999999766e-02 2.482699999999999838e-02 -3.048000000000000015e-02
5.505710000000000326e-01 -5.883599999999999941e-02 -1.338380000000000125e-01 -5.505710000000000326e-01 5.883599999999999941e-02 1.338380000000000125e-01
-2.137409999999999866e-01 -1.219419999999999948e-01 1.885060000000000069e-01 2.137409999999999866e-01 1.219419999999999948e-01 -1.885060000000000069e-01
-2.470860000000000001e-01 -1.773240000000000094e-01 -2.481849999999999890e-01 2.470860000000000001e-01 1.773240000000000094e-01 2.481849999999999890e-01
-3.485099999999999865e-01 4.607800000000000090e-02 -4.798580000000000068e-01 3.485099999999999865e-01 -4.607800000000000090e-02 4.798580000000000068e-01
6.137100000000000194e-02 -2.458599999999999952e-01 -5.597599999999999798e-02 -6.137100000000000194e-02 2.458599999999999952e-01 5.597599999999999798e-02
-5.673600000000000171e-02 5.423300000000000343e-02 1.100949999999999984e-01 5.673600000000000171e-02 -5.423300000000000343e-02 -1.100949999999999984e-01
1.956999999999999972e-03 2.462800000000000059e-02 3.102809999999999735e-01 -1.956999999999999972e-03 -2.462800000000000059e-02 -3.102809999999999735e-01
1.731949999999999878e-01 1.039739999999999970e-01 -3.208360000000000101e-01 -1.731949999999999878e-01 -1.039739999999999970e-01 3.208360000000000101e-01
-1.308850000000000013e-01 -2.775429999999999842e-01 1.449100000000000110e-01 1.308850000000000013e-01 2.775429999999999842e-01 -1.449100000000000110e-01
-2.357440000000000091e-01 -3.645140000000000047e-01 -1.384999999999999946e-02 2.357440000000000091e-01 3.645140000000000047e-01 1.384999999999999946e-02
1.752029999999999976e-01 1.706320000000000059e-01 -7.936000000000000346e-03 -1.752029999999999976e-01 -1.706320000000000059e-01 7.936000000000000346e-03
