8.109975269146250110e-01 6.032871594073273598e-07 3.016435707918052605e-07 6.032871594073272540e-07 8.109967225317149531e-01 1.005478516564086029e-07 3.016435707918053134e-07 1.005478516564086029e-07 8.109964208881361714e-01
-8.033035005469313372e-01 5.193870744457929067e-01 -2.828408674203622408e-01 5.193870744457929067e-01 5.155584134009302266e-01 -2.407940010137288867e-01 -2.828408674203622408e-01 -2.407940010137288867e-01 2.412292030811183263e+00
2.245930705650401649e+00 -4.697541512141754083e-01 8.341856818536995399e-02 -4.697541512141754083e-01 2.679508189276317953e+00 -2.556317543540032045e-01 8.341856818536995399e-02 -2.556317543540032045e-01 1.632576378541573225e+00
-1.274536735235759055e+00 -7.259366379212904841e-01 -3.035404752629937697e-01 -7.259366379212904841e-01 -9.715894286718430584e-01 -1.089291561557206439e-01 -3.035404752629937697e-01 -1.089291561557206439e-01 3.028381363633524948e-01
1.082677054919848114e+00 5.977704403618212536e-01 6.394024629336406695e-01 5.977704403618212536e-01 -1.155479358810879154e-02 -8.448648617636335401e-02 6.394024629336406695e-01 -8.448648617636335401e-02 1.290303288247878211e+00
2.432495097294913755e+00 6.558974148126246462e-01 3.857781685721826115e-01 6.558974148126246462e-01 1.299987898472640513e+00 7.269789472752953285e-01 3.857781685721826115e-01 7.269789472752953285e-01 -1.867671927199071047e-01
3.252941651102712051e-01 -2.177237018353160580e-01 -4.307354802579406727e-01 -2.177237018353160580e-01 -1.369642739785350560e+00 5.449390063250549865e-01 -4.307354802579406727e-01 5.449390063250549865e-01 -1.288150900520911579e-01
-9.636966200518405357e-01 -9.928496594551107224e-01 -5.799546859517937802e-01 -9.928496594551107224e-01 2.005216021039530006e+00 -7.651941474145196320e-01 -5.799546859517937802e-01 -7.651941474145196320e-01 3.328896033558442213e-01
2.513270433285348826e+00 -2.986424729099027009e-01 -4.973975678174889503e-01 -2.986424729099027009e-01 3.052729548733863485e+00 -6.853015279020178152e-01 -4.973975678174889503e-01 -6.853015279020178152e-01 1.285228349078775478e+00
-5.343382847193832719e-01 8.265492570572188225e-01 7.483766992965751319e-01 8.265492570572188225e-01 2.391604782829026554e+00 9.492811222110270064e-02 7.483766992965751319e-01 9.492811222110270064e-02 2.855895112013795423e-01
-1.685768451303586157e-01 -1.972322181334134339e-01 4.091680979870054302e-01 -1.972322181334134339e-01 2.437722227909394412e+00 -9.039508785858194617e-01 4.091680979870054302e-01 -9.039508785858194617e-01 -2.225852223406991348e-01
2.096801043628073735e+00 -6.308962774426138953e-01 -2.706159768372456975e-01 -6.308962774426138953e-01 1.132176444422436923e+00 3.607811557064645458e-02 -2.706159768372456975e-01 3.607811557064645458e-02 1.631250205147518173e+00
-8.786518665339934295e-03 1.791022608832649465e-01 6.134420371346701456e-03 1.791022608832649465e-01 2.386624758009940894e+00 1.821349848502448743e-01 6.134420371346701456e-03 1.821349848502448743e-01 2.390307905816665635e+00
7.338755277508840491e-01 -3.051518041719177288e-01 -1.695038407305345940e-01 -3.051518041719177288e-01 3.935511823235622320e-01 -1.699711091561921239e-01 -1.695038407305345940e-01 -1.699711091561921239e-01 1.058779308983195611e+00
1.442003013243016829e+00 6.116302999310162525e-01 4.432111421455006139e-01 6.116302999310162525e-01 1.180101407492615273e+00 -5.050291461557498973e-01 4.432111421455006139e-01 -5.050291461557498973e-01 1.228063498206924287e+00
4.129177369705374495e-02 5.111848692091218727e-01 -2.421840169888864192e-01 5.111848692091218727e-01 2.146503068378397217e+00 -8.185880292191437535e-01 -2.421840169888864192e-01 -8.185880292191437535e-01 2.301589175733763926e-01
1.663208150611402258e+00 1.630936727410291776e-01 -7.407050803743070455e-02 1.630936727410291776e-01 2.705671369588037445e-01 -2.830361685397591101e-02 -7.407050803743070455e-02 -2.830361685397591101e-02 -1.125399608635661242e+00
4.503455758441204382e-01 -1.264323524955744960e-01 -6.015749263280742998e-01 -1.264323524955744960e-01 -1.575120152578971255e-01 -4.326179132516805859e-01 -6.015749263280742998e-01 -4.326179132516805859e-01 4.287118250795536323e-01
-5.820792920481672184e-01 -3.045556732452243676e-01 1.702690407364974567e-01 -3.045556732452243676e-01 -7.637487473862136778e-01 4.726132814931695014e-01 1.702690407364974567e-01 4.726132814931695014e-01 2.424574983092727454e+00
2.032310132357893373e+00 -3.514813400133471877e-01 1.421269548894100732e-01 -3.514813400133471877e-01 3.355447851330426001e+00 -7.613266762524812936e-01 1.421269548894100732e-01 -7.613266762524812936e-01 2.660333623741820031e+00
1.438528218392749469e+00 7.466640553853957918e-02 4.102205170561825098e-01 7.466640553853957918e-02 2.345342891783064321e-01 -2.948702249935026831e-01 4.102205170561825098e-01 -2.948702249935026831e-01 9.632498402046422159e-01
-3.485977091567922515e-02 1.036256441181502931e-07 -4.962314683816165030e-15 1.036256441181502799e-07 -3.485987454132963986e-02 -1.036256481485663211e-07 -4.962314683759778830e-15 -1.036256481485663211e-07 -3.486018541826386291e-02
1.509781194806480986e-01 -2.999670594732142814e-01 4.015881945452353108e-01 -2.999670594732142814e-01 1.130821061819632156e+00 -2.858800217297595703e-01 4.015881945452353108e-01 -2.858800217297595703e-01 -1.572305981230290639e+00
-3.445566324255642798e-01 -5.447558773838249158e-01 -3.799964997870959316e-01 -5.447558773838249158e-01 2.027388323483537036e+00 -9.384987621141153147e-01 -3.799964997870959316e-01 -9.384987621141153147e-01 1.089314112148238589e+00
-1.696187460360501220e-01 3.500538556709302251e-01 1.957536407925365152e-01 3.500538556709302251e-01 3.682846161349157682e-02 2.417307702876808628e-01 1.957536407925365152e-01 2.417307702876808628e-01 1.878747699106640967e-01
1.804917793196035625e+00 3.755623921733501347e-01 -2.280079148678306744e-01 3.755623921733501347e-01 1.534358009346620033e+00 -5.092361481146603364e-01 -2.280079148678306744e-01 -5.092361481146603364e-01 -1.302977006374438362e+00
6.407713155314417874e-02 8.722725970713593457e-02 3.637692528673043268e-01 8.722725970713593457e-02 -4.592877673988289555e-02 9.942926001247259782e-02 3.637692528673043268e-01 9.942926001247259782e-02 3.077553524503004456e-01
2.098756037349576165e+00 -5.073830080513640484e-01 1.017696796212809174e-01 -5.073830080513640484e-01 2.416645903099390758e+00 7.702217470116244635e-02 1.017696796212809174e-01 7.702217470116244635e-02 1.185145805511251815e+00
-1.712548706320460079e+00 6.090742956437747990e-01 1.434382454487354575e-01 6.090742956437747990e-01 1.047881165583428809e+00 -7.051760859062504716e-01 1.434382454487354575e-01 -7.051760859062504716e-01 -4.740827758061077479e-01
1.522644545339949751e+00 -1.486425937320154378e-01 1.996121878315948728e-01 -1.486425937320154378e-01 2.430883402431631257e+00 -3.737700216579905033e-01 1.996121878315948728e-01 -3.737700216579905033e-01 1.951429262497805128e+00
-5.989308939018934685e-01 7.704797927927049539e-01 5.179158181891068136e-01 7.704797927927049539e-01 1.098190399724745303e+00 -1.457702449153136515e-01 5.179158181891068136e-01 -1.457702449153136515e-01 -8.136512923431453714e-01
6.284262160316268497e-01 5.664144988555206428e-01 5.714123379208431164e-01 5.664144988555206428e-01 -1.457114564965426462e+00 2.361862332547355892e-01 5.714123379208431164e-01 2.361862332547355892e-01 -1.145764993757426353e+00
-3.989553921128193847e-01 -4.338687500925903495e-01 -1.702017857456126215e-01 -4.338687500925903495e-01 1.645129589091646194e+00 5.328161263194792011e-03 -1.702017857456126215e-01 5.328161263194792011e-03 8.539041650432471764e-01
1.618951971249538158e+00 4.582732787871786617e-01 -3.321614810856495792e-01 4.582732787871786617e-01 1.366396704156068953e+00 -2.936709047559407093e-01 -3.321614810856495792e-01 -2.936709047559407093e-01 -1.734253213835088125e+00
2.483528399292289357e-01 5.467982690074105756e-01 4.627642878722956210e-01 5.467982690074105756e-01 3.059820332393044517e-01 -2.797497768728818279e-01 4.627642878722956210e-01 -2.797497768728818279e-01 3.729158429929578245e-01
-2.663190284455120294e-01 5.246916567784137841e-01 -1.484879113831519548e-01 5.246916567784137841e-01 5.642194131944027191e-01 -5.749805792246814873e-01 -1.484879113831519548e-01 -5.749805792246814873e-01 -1.382386269932551093e+00
1.718280029416897614e+00 -1.802927412185105494e-01 -3.419260544136911162e-01 -1.802927412185105494e-01 2.862064467739409146e-01 4.006821408656852102e-01 -3.419260544136911162e-01 4.006821408656852102e-01 3.832123224645346826e-01
2.246492338896747931e+00 7.659432131615718786e-01 3.678509035894158008e-01 7.659432131615718786e-01 2.133280985970281485e+00 2.821626572973676833e-02 3.678509035894158008e-01 2.821626572973676833e-02 1.788968923661212296e+00
2.390481696776138587e-01 5.769342942516731965e-01 4.635342428610708665e-01 5.769342942516731965e-01 7.940621374446286129e-01 -2.270042609412272483e-01 4.635342428610708665e-01 -2.270042609412272483e-01 5.198184830353503871e-01
-4.228430133308958561e-01 -5.333652042584666741e-01 -2.428456817702112913e-01 -5.333652042584666741e-01 2.928028644994600804e-01 2.197824540596171050e-01 -2.428456817702112913e-01 2.197824540596171050e-01 -1.683804620543214892e+00
2.259684964358267045e+00 2.400616283455944133e-01 5.233816572363872988e-01 2.400616283455944133e-01 1.719322069540372366e+00 6.863498649196844159e-01 5.233816572363872988e-01 6.863498649196844159e-01 2.136707332262911818e-01
8.831523398674204217e-02 -8.051198193170243655e-01 -4.757416256624655837e-01 -8.051198193170243655e-01 1.607867997211764211e+00 -2.786485301133193038e-01 -4.757416256624655837e-01 -2.786485301133193038e-01 1.793678720783333347e+00
-8.301918475935295971e-01 -2.135312090777317092e-07 1.067656076101744723e-07 -2.135312090777317092e-07 -8.301915272967032022e-01 1.067656055918268182e-07 1.067656076101744723e-07 1.067656055918268182e-07 -8.301919543591370632e-01
-1.128574969711849535e-01 -6.803645047186838157e-01 -5.619693752520296126e-01 -6.803645047186838157e-01 -2.192949724617571761e+00 5.493409569057459141e-01 -5.619693752520296126e-01 5.493409569057459141e-01 -2.762523840699910416e+00
8.915574725701534975e-01 -3.247157372835217104e-01 2.411485264363648351e-01 -3.247157372835217104e-01 -4.404910856063857794e-01 3.096858299715576357e-01 2.411485264363648351e-01 3.096858299715576357e-01 -2.054516877378394391e+00
-2.176811948876866243e+00 -1.270802865561225514e-01 3.592582255247928624e-01 -1.270802865561225514e-01 -1.925334404877094618e+00 -2.980006986787614442e-01 3.592582255247928624e-01 -2.980006986787614442e-01 -4.901612534820080636e-01
4.628605110247274168e-01 3.722568086633421536e-01 1.423433781419384259e-01 3.722568086633421536e-01 -1.747480890388046548e+00 3.549407607751821625e-01 1.423433781419384259e-01 3.549407607751821625e-01 -2.778163799353343233e+00
-2.064256651732074843e+00 5.667992790196592079e-01 4.556488397853518113e-01 5.667992790196592079e-01 -1.545256625098977432e+00 -3.534998349189407141e-01 4.556488397853518113e-01 -3.534998349189407141e-01 -2.166368781960452683e+00
8.215649200368746463e-01 1.032527213196768150e-02 4.882542205496296917e-01 1.032527213196768150e-02 -3.607278548468245138e-01 7.396489431045397689e-01 4.882542205496296917e-01 7.396489431045397689e-01 1.340944435358890408e+00
-1.141421157746088211e+00 2.390750937382346009e-01 1.964596008702632901e-01 2.390750937382346009e-01 -1.235412257358209365e+00 4.569103327020002797e-02 1.964596008702632901e-01 4.569103327020002797e-02 -3.773882478381297423e-01
2.546249742334475430e-01 2.456949221902895650e-02 -3.022437903502468437e-01 2.456949221902895650e-02 -1.793674375066450777e+00 5.338591312135814171e-01 -3.022437903502468437e-01 5.338591312135814171e-01 3.097444555981709174e-02
3.501069750239584333e-01 -4.567319957008518228e-01 -3.202970811206877488e-02 -4.567319957008518228e-01 -7.153156358671679260e-02 -2.705728705650692900e-01 -3.202970811206877488e-02 -2.705728705650692900e-01 -1.226211056898411506e-01
-1.521610769075769198e+00 -7.677043814334931493e-02 -4.842448095513607331e-02 -7.677043814334931493e-02 -6.049805534310325195e-01 -5.176141480613023482e-01 -4.842448095513607331e-02 -5.176141480613023482e-01 -3.118273397908995909e-02
-1.135956933177790340e+00 -2.096513491461602374e-01 -1.482295278515371854e-04 -2.096513491461602374e-01 -2.016958222251497901e+00 5.759279037913966892e-02 -1.482295278515371854e-04 5.759279037913966892e-02 5.630730324413779631e-01
-2.435867299953964338e+00 2.079052388400411816e-02 -2.894417721192869553e-01 2.079052388400411816e-02 -1.055648610355175709e-01 -6.780630448741855609e-01 -2.894417721192869553e-01 -6.780630448741855609e-01 -2.687036982602981183e+00
8.276198214360438454e-01 -9.518632928222422462e-01 -7.643592528736782299e-01 -9.518632928222422462e-01 -3.649509428325583560e-01 -1.697109331853957070e-01 -7.643592528736782299e-01 -1.697109331853957070e-01 -1.094681331697197946e+00
1.002350385796574317e+00 -3.008394215336273603e-01 3.462029184212710164e-02 -3.008394215336273603e-01 -6.668105462087969837e-01 1.440057857856925361e-01 3.462029184212710164e-02 1.440057857856925361e-01 -1.288656863185933421e+00
1.209742866995163979e+00 1.073039759237331414e-01 3.868987186916966192e-01 1.073039759237331414e-01 -1.867766797446231530e+00 8.364110889512789138e-01 3.868987186916966192e-01 8.364110889512789138e-01 6.681713864364605682e-01
-1.223402920991510934e+00 3.251564951105296308e-01 4.970085696592205227e-01 3.251564951105296308e-01 -3.270868988216223405e-01 -6.379755670318065786e-01 4.970085696592205227e-01 -6.379755670318065786e-01 -5.142143187530509030e-01
-2.190340518888452159e+00 -3.286915532884119862e-01 -3.412707674648237655e-01 -3.286915532884119862e-01 -1.701716522684603383e+00 -2.308941010520287329e-01 -3.412707674648237655e-01 -2.308941010520287329e-01 3.557166697440954373e-01
1.644658992700809286e+00 -6.861108445950886425e-01 9.767196746292609866e-02 -6.861108445950886425e-01 1.320795625377803040e+00 5.133480792717053376e-01 9.767196746292609866e-02 5.133480792717053376e-01 8.204464509974628283e-01
-1.134946233585282904e+00 -3.480280805969825364e-01 2.670105732181598523e-01 -3.480280805969825364e-01 -2.112892953276514163e+00 1.464805678201804295e-01 2.670105732181598523e-01 1.464805678201804295e-01 -1.749074502484377014e+00
-8.499517174470631042e-01 -6.791483082717757469e-01 -5.860565853345359733e-01 -6.791483082717757469e-01 -2.161851342917726626e+00 5.649211197777873616e-01 -5.860565853345359733e-01 5.649211197777873616e-01 -2.728640292160070757e+00
7.654878750078297767e-01 1.906159758883018069e-06 1.270773132571040307e-06 1.906159758883018069e-06 7.654844439196804018e-01 1.270773104130259082e-06 1.270773132571040095e-06 1.270773104130259294e-06 7.654840626877041920e-01
8.962435822951098086e-01 -3.502571819118170948e-01 8.860816545497899547e-04 -3.502571819118170948e-01 -4.203444932938832923e-01 7.914934658635541798e-02 8.860816545497899547e-04 7.914934658635541798e-02 9.065897677394759713e-01
-3.138578734161256434e-01 -7.966648466512729065e-01 -6.433346059792887095e-01 -7.966648466512729065e-01 1.691734623744139965e+00 -4.408962270707197373e-01 -6.433346059792887095e-01 -4.408962270707197373e-01 5.112984580146444635e-01
1.192412286556568501e+00 -3.432647047345134261e-01 -3.855775941239247828e-01 -3.432647047345134261e-01 2.783207385397103995e+00 -5.314774149447905049e-01 -3.855775941239247828e-01 -5.314774149447905049e-01 4.259675147506899462e-01
7.815823523468748979e-01 3.205760261354763108e-01 5.787680885766239430e-02 3.205760261354763108e-01 2.640416183209539636e-01 -2.768712744311020990e-01 5.787680885766239430e-02 -2.768712744311020990e-01 3.678538372591237393e-01
2.074600924260708634e+00 3.869308498884645453e-01 -7.412032939882282935e-03 3.869308498884645453e-01 -8.182376798087759306e-01 8.717646883941172486e-01 -7.412032939882282935e-03 8.717646883941172486e-01 -1.075547550980485934e+00
1.382967174095383500e+00 -2.749941664746298198e-01 -2.372946097344998118e-01 -2.749941664746298198e-01 5.230122152596843321e-01 4.197216133926985893e-01 -2.372946097344998118e-01 4.197216133926985893e-01 6.470685864124089415e-01
1.916068522700743737e-01 9.660103886783574789e-02 1.878285095090934942e-01 9.660103886783574789e-02 1.404290418455120371e+00 -5.644128141133087917e-01 1.878285095090934942e-01 -5.644128141133087917e-01 2.496556406624284463e+00
-1.968462988042551376e-01 1.997820827468888283e-01 3.948522081184775989e-01 1.997820827468888283e-01 -7.050005297012758021e-01 3.966411259979795711e-01 3.948522081184775989e-01 3.966411259979795711e-01 -1.079362216197480739e+00
1.072094988824618955e+00 -3.097690308521073299e-01 1.707389006962585776e-01 -3.097690308521073299e-01 2.204858980507257371e+00 -3.650722379119899497e-01 1.707389006962585776e-01 -3.650722379119899497e-01 -5.134068364829785791e-01
-1.199284876506997000e+00 -3.977169551012620374e-01 -1.417335538528901873e-01 -3.977169551012620374e-01 -1.066141807957344367e+00 -1.687075677477024582e-01 -1.417335538528901873e-01 -1.687075677477024582e-01 3.852425615151939264e-01
6.108293600416067060e-01 -3.068505766608012331e-01 -3.034271625164426320e-02 -3.068505766608012331e-01 1.402285366198541716e+00 -4.379158469781825880e-01 -3.034271625164426320e-02 -4.379158469781825880e-01 7.738483650315068629e-02
7.385238620353877792e-01 -1.500271609107725335e-01 5.863852922127269201e-04 -1.500271609107725335e-01 2.220271974177448815e+00 -2.902125779835608155e-01 5.863852922127269201e-04 -2.902125779835608155e-01 1.458780817199121893e+00
2.697324329251933772e+00 -4.174077814721571245e-01 -3.622401929147690547e-01 -4.174077814721571245e-01 3.151499381903871910e+00 -1.301184330256446586e-01 -3.622401929147690547e-01 -1.301184330256446586e-01 2.139987390413846113e-01
1.140492882472310177e+00 -6.778757910104494799e-01 -4.315117968296491857e-01 -6.778757910104494799e-01 2.154587847366006004e-01 -1.900462984825329257e-02 -4.315117968296491857e-01 -1.900462984825329257e-02 1.966630899981365865e-01
2.400478797259569586e+00 -6.879854544007911743e-01 -4.895034161139801276e-01 -6.879854544007911743e-01 2.175160866005606319e+00 2.911940763580242453e-01 -4.895034161139801276e-01 2.911940763580242453e-01 2.729248711440607766e-01
3.286221616611698093e-01 3.960598095302206301e-01 4.799189550735594723e-01 3.960598095302206301e-01 1.929400656998474517e+00 -3.553264123035164701e-01 4.799189550735594723e-01 -3.553264123035164701e-01 -4.376047096735038444e-01
1.929096731860805880e+00 4.781160545684343677e-01 -2.874327997762751719e-02 4.781160545684343677e-01 -2.676720520160260630e-01 6.947769129142568056e-01 -2.874327997762751719e-02 6.947769129142568056e-01 -1.150735660269124050e-01
2.010786637466478233e+00 -6.795297430931803717e-01 -5.704166753607116114e-01 -6.795297430931803717e-01 2.163299757399772538e+00 8.947257096574937063e-02 -5.704166753607116114e-01 8.947257096574937063e-02 2.939232990965485737e+00
3.008505389667841090e+00 4.600735083812390047e-01 5.545679623350234788e-01 4.600735083812390047e-01 1.907799909848404862e+00 4.069857720236251253e-01 5.545679623350234788e-01 4.069857720236251253e-01 1.597868944613182851e+00
1.667015835273819024e-01 -4.934141450681456820e-01 -2.262337748655700587e-01 -4.934141450681456820e-01 1.935244921711994914e+00 -2.128765792900463305e-01 -2.262337748655700587e-01 -2.128765792900463305e-01 2.007989220451678491e+00
-5.122074027698563653e-02 2.488376386488687471e-06 1.702573175957688069e-06 2.488376386488687895e-06 -5.122283575242914805e-02 9.167700395221436190e-07 1.702573175957688069e-06 9.167700395221437249e-07 -5.122545509597985908e-02
1.785633404277067848e+00 1.373158573779592606e-01 -1.698758430307792111e-01 1.373158573779592606e-01 -1.660620033663680675e-02 7.019930606166081555e-01 -1.698758430307792111e-01 7.019930606166081555e-01 2.025072967605810348e+00
1.473055422043588303e+00 3.199223048815309500e-01 2.411488995979270133e-01 3.199223048815309500e-01 1.361667225270870363e+00 -2.974604613670034370e-01 2.411488995979270133e-01 -2.974604613670034370e-01 -7.582050451422440718e-01
-9.401775122275951579e-01 6.963503736412701706e-01 3.520753871535287627e-01 6.963503736412701706e-01 -3.011778779615602031e-01 -7.058812418600911298e-02 3.520753871535287627e-01 -7.058812418600911298e-02 -1.522361666213323694e+00
-1.038596548719852519e+00 -6.005196994599736326e-01 -2.026889762254802940e-01 -6.005196994599736326e-01 -1.175053312563354213e+00 7.723649575792489175e-02 -2.026889762254802940e-01 7.723649575792489175e-02 -1.413045708301613690e+00
-1.108041781844170348e+00 -5.713249017705239741e-01 -3.623777490615604502e-01 -5.713249017705239741e-01 -1.317610072676152155e+00 2.035061857027297694e-01 -3.623777490615604502e-01 2.035061857027297694e-01 9.750102053020857085e-01
1.365777731463343470e+00 -3.209947524277925734e-01 1.166569438743926129e-01 -3.209947524277925734e-01 2.111315360724788537e+00 -3.576543736349221958e-01 1.166569438743926129e-01 -3.576543736349221958e-01 -1.300861951900791125e+00
-1.673778835143442112e-01 7.548039101352883584e-01 5.320593037818381887e-01 7.548039101352883584e-01 -5.827265039857379980e-01 2.053013069008904901e-01 5.320593037818381887e-01 2.053013069008904901e-01 -1.532868642980740326e-01
-1.698896810547168235e+00 -6.880595824955686446e-01 -6.188969906256494014e-01 -6.880595824955686446e-01 -2.246587894359911797e+00 4.468436088585872601e-01 -6.188969906256494014e-01 4.468436088585872601e-01 -4.756646496436455762e-01
1.576894523104630741e+00 -1.783466387580483481e-01 -3.340382158680053060e-01 -1.783466387580483481e-01 1.932298416535079166e+00 -1.664826918887462592e-01 -3.340382158680053060e-01 -1.664826918887462592e-01 8.880611172652822516e-01
1.328075987235137312e+00 -5.157410387346649250e-01 -5.125826093956317164e-01 -5.157410387346649250e-01 1.518162579293778736e+00 1.544525411418072765e-02 -5.125826093956317164e-01 1.544525411418072765e-02 5.942606262545767626e-01
-7.200731693746792450e-01 -1.380714388660403968e-01 -1.808489204543971551e-01 -1.380714388660403968e-01 4.686547326406318992e-01 -1.193762815092682672e-01 -1.808489204543971551e-01 -1.193762815092682672e-01 -1.511841701544660799e+00
-1.290341243680533490e+00 6.028616140589980743e-01 2.876795095606027863e-01 6.028616140589980743e-01 -1.457899028455563961e+00 -2.426328847269780264e-01 2.876795095606027863e-01 -2.426328847269780264e-01 -9.277136076567604750e-01
-1.218458722791768034e+00 5.751912815090485243e-01 5.219480270273059164e-01 5.751912815090485243e-01 -1.530919525018669791e+00 -1.206374260015258826e-01 5.219480270273059164e-01 -1.206374260015258826e-01 3.320099561738990707e-02
1.091355654534277297e+00 -1.002270211147324508e+00 -6.683345671737696003e-01 -1.002270211147324508e+00 1.420563574023893105e+00 1.208265743331703862e-02 -6.683345671737696003e-01 1.208265743331703862e-02 1.344582779042459597e+00
-1.006177105334305155e+00 -7.379052670857662033e-01 -5.720701951627426007e-01 -7.379052670857662033e-01 -1.102686588591865080e+00 1.981027929073723715e-01 -5.720701951627426007e-01 1.981027929073723715e-01 1.477497447522937990e-01
-9.807564973741471348e-02 -4.090376350466277122e-01 -4.592092851206139303e-01 -4.090376350466277122e-01 1.528151367725925913e-01 1.687625875193014546e-01 -4.592092851206139303e-01 1.687625875193014546e-01 -5.991416911262849032e-01
-8.408610221917783845e-01 -3.882146149139633073e-01 -2.694326405085935017e-01 -3.882146149139633073e-01 -1.162348059670627320e-01 -2.102677414667529776e-01 -2.694326405085935017e-01 -2.102677414667529776e-01 1.115226293271716074e+00
-1.412765512753767716e+00 8.559283120949046086e-02 3.553043436369145991e-01 8.559283120949046086e-02 -5.685730476108751263e-01 -3.260073867215574905e-01 3.553043436369145991e-01 -3.260073867215574905e-01 1.583589934126518883e-01
-7.932350630178397477e-01 6.528406895689573552e-01 4.773795568310705839e-01 6.528406895689573552e-01 4.149881899872608915e-01 -3.437501703344008480e-02 4.773795568310705839e-01 -3.437501703344008480e-02 3.852494492681372840e-02
1.001641879902178678e+00 -4.346897153436601186e-02 -4.952242616613616172e-02 -4.346897153436601186e-02 -1.478948479173697594e-01 3.756161162660309749e-02 -4.952242616613616172e-02 3.756161162660309749e-02 -1.296699654331328722e+00
-8.076752147300906293e-01 8.096136406873880722e-07 4.048067730281492112e-07 8.096136406873879664e-07 -8.076769688932694535e-01 5.397424023482103402e-07 4.048067730281492112e-07 5.397424023482103402e-07 -8.076777785069630955e-01
1.202294529557684122e+00 -1.462499217005388263e-01 -4.687605792675312855e-01 -1.462499217005388263e-01 -2.745880053355728712e-01 6.031108438632766244e-01 -4.687605792675312855e-01 6.031108438632766244e-01 -6.334756840462747451e-01
5.008378455792155126e-01 -4.568650339758335843e-02 -1.350385853313361695e-01 -4.568650339758335843e-02 1.338144476647670222e+00 -1.992163556415534054e-01 -1.350385853313361695e-01 -1.992163556415534054e-01 1.081998022912253221e+00
5.414322257758221735e-01 4.178359400459021877e-01 -1.118941784819151158e-01 4.178359400459021877e-01 1.302784898233474653e+00 -2.311944344025917975e-01 -1.118941784819151158e-01 -2.311944344025917975e-01 -1.335332913015299550e+00
-2.332609583304792178e+00 -3.205440385559109595e-01 -2.122411126068730891e-01 -3.205440385559109595e-01 -2.266849689543620094e+00 -2.921774238810466717e-01 -2.122411126068730891e-01 -2.921774238810466717e-01 -1.442595985095822098e+00
8.512858575886191048e-02 3.766811095501834128e-01 8.840125449852442863e-02 3.766811095501834128e-01 -2.075807709687357505e+00 7.333702894756910506e-01 8.840125449852442863e-02 7.333702894756910506e-01 -8.463309187045512383e-01
-1.507490112493043322e+00 -2.233982528347776830e-01 -2.563970297792509956e-01 -2.233982528347776830e-01 -5.194752731764398224e-01 3.888099065088661266e-02 -2.563970297792509956e-01 3.888099065088661266e-02 -4.961133916006227329e-02
-9.374792823632809302e-01 -1.178423685530375631e-01 2.818902451911178830e-01 -1.178423685530375631e-01 2.030054225354037678e-01 6.069340488712791915e-02 2.818902451911178830e-01 6.069340488712791915e-02 -1.084100768973335294e+00
5.349481694117439456e-01 2.081773571200422335e-01 3.997380925181366340e-01 2.081773571200422335e-01 1.052159420037525051e+00 -4.432255888904407942e-02 3.997380925181366340e-01 -4.432255888904407942e-02 -4.910279834548351707e-01
-1.837604900379364414e+00 3.057071729146279560e-01 -1.733240867699952781e-01 3.057071729146279560e-01 -1.909677021656243090e+00 -4.593384975341539833e-02 -1.733240867699952781e-01 -4.593384975341539833e-02 -1.013741327290222483e+00
9.116761066892504761e-01 -7.624434328341476164e-01 -7.361968094497417514e-01 -7.624434328341476164e-01 1.990842329624942508e-01 4.821536774719749063e-01 -7.361968094497417514e-01 4.821536774719749063e-01 4.199459741504928401e-01
1.060222636691236620e+00 6.276333508458551425e-01 5.335769653016300129e-01 6.276333508458551425e-01 1.175788423866352295e+00 -1.289064722597188517e-01 5.335769653016300129e-01 -1.289064722597188517e-01 1.405447156145175125e+00
6.955338127211604382e-01 5.815117799725963987e-01 4.813629566604109011e-01 5.815117799725963987e-01 -7.513303128762953698e-01 5.925918556016757099e-01 4.813629566604109011e-01 5.925918556016757099e-01 -1.360450289289150128e+00
3.736156488016894039e-01 8.196639486785372020e-01 6.019200457497734247e-01 8.196639486785372020e-01 6.247979183977848683e-01 -1.639615959280740221e-01 6.019200457497734247e-01 -1.639615959280740221e-01 -2.085835870516367763e+00
1.503991207008597009e-01 -2.566433689586925526e-01 -3.638226007500328651e-01 -2.566433689586925526e-01 -8.252217958014471666e-01 3.198928243001856186e-01 -3.638226007500328651e-01 3.198928243001856186e-01 -3.703982406497310365e-01
-2.233782813748703688e+00 2.676514390148903577e-01 4.460768278032733458e-01 2.676514390148903577e-01 -1.723776861086548040e+00 4.859914669001405563e-02 4.460768278032733458e-01 4.859914669001405563e-02 -1.017112361121137232e+00
-8.545781230090667702e-01 5.280094334655002081e-02 -8.434024867707196060e-02 5.280094334655002081e-02 -2.128355777631555090e-01 -1.311936039258171649e-01 -8.434024867707196060e-02 -1.311936039258171649e-01 1.283294748612031633e-01
4.463472825867322025e-03 -5.372902091914951717e-01 -2.420813416807084117e-01 -5.372902091914951717e-01 5.427979230994651738e-01 -1.184001681295651365e-01 -2.420813416807084117e-01 -1.184001681295651365e-01 -1.657071994160224770e+00
7.880021901118524630e-01 1.869801751616456675e-01 -1.678773192112217594e-01 1.869801751616456675e-01 -9.749720350938125835e-01 3.817648664566145600e-01 -1.678773192112217594e-01 3.817648664566145600e-01 2.347614405839330842e-01
5.104774930003261879e-01 1.107834830547235888e-01 3.693988309103303225e-01 1.107834830547235888e-01 -1.160235909036499313e+00 6.812999004459239227e-01 3.693988309103303225e-01 6.812999004459239227e-01 9.201196275608749531e-01
-8.412186089695636859e-01 -2.922133544247898507e-01 1.759319688993117026e-01 -2.922133544247898507e-01 8.044085404079680257e-02 3.244034676448974419e-02 1.759319688993117026e-01 3.244034676448974419e-02 -1.572453578741191516e+00
