1.638099999999999890e+00 9.457600000000000451e-01 2.109750000000000014e+00 -3.000000000000000076e-05 1.891520000000000090e+00 0.000000000000000000e+00 1.638099999999999890e+00 9.457600000000000451e-01 6.329259999999999664e+00 -3.000000000000000076e-05 1.891520000000000090e+00 4.219509999999999650e+00 -6.999999999999999387e-05 3.783030000000000115e+00 2.109750000000000014e+00 -1.638200000000000101e+00 4.728790000000000049e+00 0.000000000000000000e+00 -3.276419999999999888e+00 7.566150000000000375e+00 0.000000000000000000e+00 4.914340000000000153e+00 9.457600000000000451e-01 2.109750000000000014e+00 3.276170000000000027e+00 3.783030000000000115e+00 2.109750000000000014e+00 1.638039999999999941e+00 4.728790000000000049e+00 0.000000000000000000e+00 1.637950000000000017e+00 6.620400000000000063e+00 2.109750000000000014e+00 6.552539999999999587e+00 1.891520000000000090e+00 4.219509999999999650e+00 1.638099999999999890e+00 9.457600000000000451e-01 0.000000000000000000e+00 1.638099999999999890e+00 9.457600000000000451e-01 4.219509999999999650e+00 -6.999999999999999387e-05 3.783030000000000115e+00 0.000000000000000000e+00 -6.999999999999999387e-05 3.783030000000000115e+00 4.219509999999999650e+00 -1.638279999999999959e+00 6.620400000000000063e+00 0.000000000000000000e+00 -1.638279999999999959e+00 6.620400000000000063e+00 4.219509999999999650e+00 4.914340000000000153e+00 9.457600000000000451e-01 0.000000000000000000e+00 4.914340000000000153e+00 9.457600000000000451e-01 4.219509999999999650e+00 3.276170000000000027e+00 3.783030000000000115e+00 0.000000000000000000e+00 3.276170000000000027e+00 3.783030000000000115e+00 4.219509999999999650e+00 1.637950000000000017e+00 6.620400000000000063e+00 0.000000000000000000e+00 1.637950000000000017e+00 6.620400000000000063e+00 4.219509999999999650e+00 8.190670000000000783e+00 9.457600000000000451e-01 0.000000000000000000e+00 8.190670000000000783e+00 9.457600000000000451e-01 4.219509999999999650e+00 6.552509999999999835e+00 3.783030000000000115e+00 0.000000000000000000e+00 6.552509999999999835e+00 3.783030000000000115e+00 4.219509999999999650e+00 4.914290000000000269e+00 6.620400000000000063e+00 0.000000000000000000e+00 4.914290000000000269e+00 6.620400000000000063e+00 4.219509999999999650e+00 -3.000000000000000076e-05 1.891520000000000090e+00 2.109750000000000014e+00 -3.000000000000000076e-05 1.891520000000000090e+00 6.329259999999999664e+00 -1.638200000000000101e+00 4.728790000000000049e+00 2.109750000000000014e+00 -1.638200000000000101e+00 4.728790000000000049e+00 6.329259999999999664e+00 -3.276419999999999888e+00 7.566150000000000375e+00 2.109750000000000014e+00 -3.276419999999999888e+00 7.566150000000000375e+00 6.329259999999999664e+00 3.276199999999999779e+00 1.891520000000000090e+00 2.109750000000000014e+00 3.276199999999999779e+00 1.891520000000000090e+00 6.329259999999999664e+00 1.638039999999999941e+00 4.728790000000000049e+00 2.109750000000000014e+00 1.638039999999999941e+00 4.728790000000000049e+00 6.329259999999999664e+00 -1.800000000000000113e-04 7.566150000000000375e+00 2.109750000000000014e+00 -1.800000000000000113e-04 7.566150000000000375e+00 6.329259999999999664e+00 6.552539999999999587e+00 1.891520000000000090e+00 2.109750000000000014e+00 6.552539999999999587e+00 1.891520000000000090e+00 6.329259999999999664e+00 4.914369999999999905e+00 4.728790000000000049e+00 2.109750000000000014e+00 4.914369999999999905e+00 4.728790000000000049e+00 6.329259999999999664e+00 3.276149999999999896e+00 7.566150000000000375e+00 2.109750000000000014e+00 3.276149999999999896e+00 7.566150000000000375e+00 6.329259999999999664e+00 -6.999999999999999387e-05 3.783030000000000115e+00 6.329259999999999664e+00 -1.638200000000000101e+00 4.728790000000000049e+00 4.219509999999999650e+00 -1.638279999999999959e+00 6.620400000000000063e+00 2.109750000000000014e+00 -1.638279999999999959e+00 6.620400000000000063e+00 6.329259999999999664e+00 -3.276419999999999888e+00 7.566150000000000375e+00 4.219509999999999650e+00 3.276199999999999779e+00 1.891520000000000090e+00 0.000000000000000000e+00 4.914340000000000153e+00 9.457600000000000451e-01 6.329259999999999664e+00 3.276199999999999779e+00 1.891520000000000090e+00 4.219509999999999650e+00 3.276170000000000027e+00 3.783030000000000115e+00 6.329259999999999664e+00 1.638039999999999941e+00 4.728790000000000049e+00 4.219509999999999650e+00 -1.800000000000000113e-04 7.566150000000000375e+00 0.000000000000000000e+00 1.637950000000000017e+00 6.620400000000000063e+00 6.329259999999999664e+00 -1.800000000000000113e-04 7.566150000000000375e+00 4.219509999999999650e+00 8.190670000000000783e+00 9.457600000000000451e-01 2.109750000000000014e+00 6.552539999999999587e+00 1.891520000000000090e+00 0.000000000000000000e+00 8.190670000000000783e+00 9.457600000000000451e-01 6.329259999999999664e+00 6.552509999999999835e+00 3.783030000000000115e+00 2.109750000000000014e+00 4.914369999999999905e+00 4.728790000000000049e+00 0.000000000000000000e+00 6.552509999999999835e+00 3.783030000000000115e+00 6.329259999999999664e+00 4.914369999999999905e+00 4.728790000000000049e+00 4.219509999999999650e+00 4.914290000000000269e+00 6.620400000000000063e+00 2.109750000000000014e+00 3.276149999999999896e+00 7.566150000000000375e+00 0.000000000000000000e+00 4.914290000000000269e+00 6.620400000000000063e+00 6.329259999999999664e+00 3.276149999999999896e+00 7.566150000000000375e+00 4.219509999999999650e+00
1.638099999999999890e+00 9.457600000000000451e-01 2.109750000000000014e+00 -3.000000000000000076e-05 1.891520000000000090e+00 0.000000000000000000e+00 1.638099999999999890e+00 9.457600000000000451e-01 6.329259999999999664e+00 -3.000000000000000076e-05 1.891520000000000090e+00 4.219509999999999650e+00 -1.638200000000000101e+00 4.728790000000000049e+00 0.000000000000000000e+00 -1.638279999999999959e+00 6.620400000000000063e+00 2.109750000000000014e+00 3.276199999999999779e+00 1.891520000000000090e+00 0.000000000000000000e+00 4.914340000000000153e+00 9.457600000000000451e-01 6.329259999999999664e+00 1.638039999999999941e+00 4.728790000000000049e+00 0.000000000000000000e+00 3.276170000000000027e+00 3.783030000000000115e+00 6.329259999999999664e+00 1.637950000000000017e+00 6.620400000000000063e+00 6.329259999999999664e+00 4.914290000000000269e+00 6.620400000000000063e+00 2.109750000000000014e+00 1.638099999999999890e+00 9.457600000000000451e-01 0.000000000000000000e+00 1.638099999999999890e+00 9.457600000000000451e-01 4.219509999999999650e+00 -6.999999999999999387e-05 3.783030000000000115e+00 0.000000000000000000e+00 -6.999999999999999387e-05 3.783030000000000115e+00 4.219509999999999650e+00 -1.638279999999999959e+00 6.620400000000000063e+00 0.000000000000000000e+00 -1.638279999999999959e+00 6.620400000000000063e+00 4.219509999999999650e+00 4.914340000000000153e+00 9.457600000000000451e-01 0.000000000000000000e+00 4.914340000000000153e+00 9.457600000000000451e-01 4.219509999999999650e+00 3.276170000000000027e+00 3.783030000000000115e+00 0.000000000000000000e+00 3.276170000000000027e+00 3.783030000000000115e+00 4.219509999999999650e+00 1.637950000000000017e+00 6.620400000000000063e+00 0.000000000000000000e+00 1.637950000000000017e+00 6.620400000000000063e+00 4.219509999999999650e+00 8.190670000000000783e+00 9.457600000000000451e-01 0.000000000000000000e+00 8.190670000000000783e+00 9.457600000000000451e-01 4.219509999999999650e+00 6.552509999999999835e+00 3.783030000000000115e+00 0.000000000000000000e+00 6.552509999999999835e+00 3.783030000000000115e+00 4.219509999999999650e+00 4.914290000000000269e+00 6.620400000000000063e+00 0.000000000000000000e+00 4.914290000000000269e+00 6.620400000000000063e+00 4.219509999999999650e+00 -3.000000000000000076e-05 1.891520000000000090e+00 2.109750000000000014e+00 -3.000000000000000076e-05 1.891520000000000090e+00 6.329259999999999664e+00 -1.638200000000000101e+00 4.728790000000000049e+00 2.109750000000000014e+00 -1.638200000000000101e+00 4.728790000000000049e+00 6.329259999999999664e+00 -3.276419999999999888e+00 7.566150000000000375e+00 2.109750000000000014e+00 -3.276419999999999888e+00 7.566150000000000375e+00 6.329259999999999664e+00 3.276199999999999779e+00 1.891520000000000090e+00 2.109750000000000014e+00 3.276199999999999779e+00 1.891520000000000090e+00 6.329259999999999664e+00 1.638039999999999941e+00 4.728790000000000049e+00 2.109750000000000014e+00 1.638039999999999941e+00 4.728790000000000049e+00 6.329259999999999664e+00 -1.800000000000000113e-04 7.566150000000000375e+00 2.109750000000000014e+00 -1.800000000000000113e-04 7.566150000000000375e+00 6.329259999999999664e+00 6.552539999999999587e+00 1.891520000000000090e+00 2.109750000000000014e+00 6.552539999999999587e+00 1.891520000000000090e+00 6.329259999999999664e+00 4.914369999999999905e+00 4.728790000000000049e+00 2.109750000000000014e+00 4.914369999999999905e+00 4.728790000000000049e+00 6.329259999999999664e+00 3.276149999999999896e+00 7.566150000000000375e+00 2.109750000000000014e+00 3.276149999999999896e+00 7.566150000000000375e+00 6.329259999999999664e+00 -6.999999999999999387e-05 3.783030000000000115e+00 2.109750000000000014e+00 -6.999999999999999387e-05 3.783030000000000115e+00 6.329259999999999664e+00 -1.638200000000000101e+00 4.728790000000000049e+00 4.219509999999999650e+00 -3.276419999999999888e+00 7.566150000000000375e+00 0.000000000000000000e+00 -1.638279999999999959e+00 6.620400000000000063e+00 6.329259999999999664e+00 -3.276419999999999888e+00 7.566150000000000375e+00 4.219509999999999650e+00 4.914340000000000153e+00 9.457600000000000451e-01 2.109750000000000014e+00 3.276199999999999779e+00 1.891520000000000090e+00 4.219509999999999650e+00 3.276170000000000027e+00 3.783030000000000115e+00 2.109750000000000014e+00 1.638039999999999941e+00 4.728790000000000049e+00 4.219509999999999650e+00 1.637950000000000017e+00 6.620400000000000063e+00 2.109750000000000014e+00 -1.800000000000000113e-04 7.566150000000000375e+00 0.000000000000000000e+00 -1.800000000000000113e-04 7.566150000000000375e+00 4.219509999999999650e+00 8.190670000000000783e+00 9.457600000000000451e-01 2.109750000000000014e+00 6.552539999999999587e+00 1.891520000000000090e+00 0.000000000000000000e+00 8.190670000000000783e+00 9.457600000000000451e-01 6.329259999999999664e+00 6.552539999999999587e+00 1.891520000000000090e+00 4.219509999999999650e+00 6.552509999999999835e+00 3.783030000000000115e+00 2.109750000000000014e+00 4.914369999999999905e+00 4.728790000000000049e+00 0.000000000000000000e+00 6.552509999999999835e+00 3.783030000000000115e+00 6.329259999999999664e+00 4.914369999999999905e+00 4.728790000000000049e+00 4.219509999999999650e+00 3.276149999999999896e+00 7.566150000000000375e+00 0.000000000000000000e+00 4.914290000000000269e+00 6.620400000000000063e+00 6.329259999999999664e+00 3.276149999999999896e+00 7.566150000000000375e+00 4.219509999999999650e+00
1.638099999999999890e+00 9.457600000000000451e-01 2.109750000000000014e+00 -3.000000000000000076e-05 1.891520000000000090e+00 0.000000000000000000e+00 1.638099999999999890e+00 9.457600000000000451e-01 6.329259999999999664e+00 -6.999999999999999387e-05 3.783030000000000115e+00 2.109750000000000014e+00 -1.638200000000000101e+00 4.728790000000000049e+00 4.219509999999999650e+00 -3.276419999999999888e+00 7.566150000000000375e+00 4.219509999999999650e+00 3.276170000000000027e+00 3.783030000000000115e+00 2.109750000000000014e+00 1.638039999999999941e+00 4.728790000000000049e+00 4.219509999999999650e+00 -1.800000000000000113e-04 7.566150000000000375e+00 0.000000000000000000e+00 1.637950000000000017e+00 6.620400000000000063e+00 6.329259999999999664e+00 8.190670000000000783e+00 9.457600000000000451e-01 6.329259999999999664e+00 6.552509999999999835e+00 3.783030000000000115e+00 6.329259999999999664e+00 1.638099999999999890e+00 9.457600000000000451e-01 0.000000000000000000e+00 1.638099999999999890e+00 9.457600000000000451e-01 4.219509999999999650e+00 -6.999999999999999387e-05 3.783030000000000115e+00 0.000000000000000000e+00 -6.999999999999999387e-05 3.783030000000000115e+00 4.219509999999999650e+00 -1.638279999999999959e+00 6.620400000000000063e+00 0.000000000000000000e+00 -1.638279999999999959e+00 6.620400000000000063e+00 4.219509999999999650e+00 4.914340000000000153e+00 9.457600000000000451e-01 0.000000000000000000e+00 4.914340000000000153e+00 9.457600000000000451e-01 4.219509999999999650e+00 3.276170000000000027e+00 3.783030000000000115e+00 0.000000000000000000e+00 3.276170000000000027e+00 3.783030000000000115e+00 4.219509999999999650e+00 1.637950000000000017e+00 6.620400000000000063e+00 0.000000000000000000e+00 1.637950000000000017e+00 6.620400000000000063e+00 4.219509999999999650e+00 8.190670000000000783e+00 9.457600000000000451e-01 0.000000000000000000e+00 8.190670000000000783e+00 9.457600000000000451e-01 4.219509999999999650e+00 6.552509999999999835e+00 3.783030000000000115e+00 0.000000000000000000e+00 6.552509999999999835e+00 3.783030000000000115e+00 4.219509999999999650e+00 4.914290000000000269e+00 6.620400000000000063e+00 0.000000000000000000e+00 4.914290000000000269e+00 6.620400000000000063e+00 4.219509999999999650e+00 -3.000000000000000076e-05 1.891520000000000090e+00 2.109750000000000014e+00 -3.000000000000000076e-05 1.891520000000000090e+00 6.329259999999999664e+00 -1.638200000000000101e+00 4.728790000000000049e+00 2.109750000000000014e+00 -1.638200000000000101e+00 4.728790000000000049e+00 6.329259999999999664e+00 -3.276419999999999888e+00 7.566150000000000375e+00 2.109750000000000014e+00 -3.276419999999999888e+00 7.566150000000000375e+00 6.329259999999999664e+00 3.276199999999999779e+00 1.891520000000000090e+00 2.109750000000000014e+00 3.276199999999999779e+00 1.891520000000000090e+00 6.329259999999999664e+00 1.638039999999999941e+00 4.728790000000000049e+00 2.109750000000000014e+00 1.638039999999999941e+00 4.728790000000000049e+00 6.329259999999999664e+00 -1.800000000000000113e-04 7.566150000000000375e+00 2.109750000000000014e+00 -1.800000000000000113e-04 7.566150000000000375e+00 6.329259999999999664e+00 6.552539999999999587e+00 1.891520000000000090e+00 2.109750000000000014e+00 6.552539999999999587e+00 1.891520000000000090e+00 6.329259999999999664e+00 4.914369999999999905e+00 4.728790000000000049e+00 2.109750000000000014e+00 4.914369999999999905e+00 4.728790000000000049e+00 6.329259999999999664e+00 3.276149999999999896e+00 7.566150000000000375e+00 2.109750000000000014e+00 3.276149999999999896e+00 7.566150000000000375e+00 6.329259999999999664e+00 -3.000000000000000076e-05 1.891520000000000090e+00 4.219509999999999650e+00 -1.638200000000000101e+00 4.728790000000000049e+00 0.000000000000000000e+00 -6.999999999999999387e-05 3.783030000000000115e+00 6.329259999999999664e+00 -1.638279999999999959e+00 6.620400000000000063e+00 2.109750000000000014e+00 -3.276419999999999888e+00 7.566150000000000375e+00 0.000000000000000000e+00 -1.638279999999999959e+00 6.620400000000000063e+00 6.329259999999999664e+00 4.914340000000000153e+00 9.457600000000000451e-01 2.109750000000000014e+00 3.276199999999999779e+00 1.891520000000000090e+00 0.000000000000000000e+00 4.914340000000000153e+00 9.457600000000000451e-01 6.329259999999999664e+00 3.276199999999999779e+00 1.891520000000000090e+00 4.219509999999999650e+00 1.638039999999999941e+00 4.728790000000000049e+00 0.000000000000000000e+00 3.276170000000000027e+00 3.783030000000000115e+00 6.329259999999999664e+00 1.637950000000000017e+00 6.620400000000000063e+00 2.109750000000000014e+00 -1.800000000000000113e-04 7.566150000000000375e+00 4.219509999999999650e+00 8.190670000000000783e+00 9.457600000000000451e-01 2.109750000000000014e+00 6.552539999999999587e+00 1.891520000000000090e+00 0.000000000000000000e+00 6.552539999999999587e+00 1.891520000000000090e+00 4.219509999999999650e+00 6.552509999999999835e+00 3.783030000000000115e+00 2.109750000000000014e+00 4.914369999999999905e+00 4.728790000000000049e+00 0.000000000000000000e+00 4.914369999999999905e+00 4.728790000000000049e+00 4.219509999999999650e+00 4.914290000000000269e+00 6.620400000000000063e+00 2.109750000000000014e+00 3.276149999999999896e+00 7.566150000000000375e+00 0.000000000000000000e+00 4.914290000000000269e+00 6.620400000000000063e+00 6.329259999999999664e+00 3.276149999999999896e+00 7.566150000000000375e+00 4.219509999999999650e+00
1.638099999999999890e+00 9.457600000000000451e-01 2.109750000000000014e+00 -3.000000000000000076e-05 1.891520000000000090e+00 0.000000000000000000e+00 1.638099999999999890e+00 9.457600000000000451e-01 6.329259999999999664e+00 -1.638200000000000101e+00 4.728790000000000049e+00 0.000000000000000000e+00 -1.638279999999999959e+00 6.620400000000000063e+00 2.109750000000000014e+00 4.914340000000000153e+00 9.457600000000000451e-01 6.329259999999999664e+00 1.638039999999999941e+00 4.728790000000000049e+00 0.000000000000000000e+00 -1.800000000000000113e-04 7.566150000000000375e+00 0.000000000000000000e+00 6.552539999999999587e+00 1.891520000000000090e+00 4.219509999999999650e+00 6.552509999999999835e+00 3.783030000000000115e+00 2.109750000000000014e+00 4.914369999999999905e+00 4.728790000000000049e+00 0.000000000000000000e+00 4.914290000000000269e+00 6.620400000000000063e+00 2.109750000000000014e+00 1.638099999999999890e+00 9.457600000000000451e-01 0.000000000000000000e+00 1.638099999999999890e+00 9.457600000000000451e-01 4.219509999999999650e+00 -6.999999999999999387e-05 3.783030000000000115e+00 0.000000000000000000e+00 -6.999999999999999387e-05 3.783030000000000115e+00 4.219509999999999650e+00 -1.638279999999999959e+00 6.620400000000000063e+00 0.000000000000000000e+00 -1.638279999999999959e+00 6.620400000000000063e+00 4.219509999999999650e+00 4.914340000000000153e+00 9.457600000000000451e-01 0.000000000000000000e+00 4.914340000000000153e+00 9.457600000000000451e-01 4.219509999999999650e+00 3.276170000000000027e+00 3.783030000000000115e+00 0.000000000000000000e+00 3.276170000000000027e+00 3.783030000000000115e+00 4.219509999999999650e+00 1.637950000000000017e+00 6.620400000000000063e+00 0.000000000000000000e+00 1.637950000000000017e+00 6.620400000000000063e+00 4.219509999999999650e+00 8.190670000000000783e+00 9.457600000000000451e-01 0.000000000000000000e+00 8.190670000000000783e+00 9.457600000000000451e-01 4.219509999999999650e+00 6.552509999999999835e+00 3.783030000000000115e+00 0.000000000000000000e+00 6.552509999999999835e+00 3.783030000000000115e+00 4.219509999999999650e+00 4.914290000000000269e+00 6.620400000000000063e+00 0.000000000000000000e+00 4.914290000000000269e+00 6.620400000000000063e+00 4.219509999999999650e+00 -3.000000000000000076e-05 1.891520000000000090e+00 2.109750000000000014e+00 -3.000000000000000076e-05 1.891520000000000090e+00 6.329259999999999664e+00 -1.638200000000000101e+00 4.728790000000000049e+00 2.109750000000000014e+00 -1.638200000000000101e+00 4.728790000000000049e+00 6.329259999999999664e+00 -3.276419999999999888e+00 7.566150000000000375e+00 2.109750000000000014e+00 -3.276419999999999888e+00 7.566150000000000375e+00 6.329259999999999664e+00 3.276199999999999779e+00 1.891520000000000090e+00 2.109750000000000014e+00 3.276199999999999779e+00 1.891520000000000090e+00 6.329259999999999664e+00 1.638039999999999941e+00 4.728790000000000049e+00 2.109750000000000014e+00 1.638039999999999941e+00 4.728790000000000049e+00 6.329259999999999664e+00 -1.800000000000000113e-04 7.566150000000000375e+00 2.109750000000000014e+00 -1.800000000000000113e-04 7.566150000000000375e+00 6.329259999999999664e+00 6.552539999999999587e+00 1.891520000000000090e+00 2.109750000000000014e+00 6.552539999999999587e+00 1.891520000000000090e+00 6.329259999999999664e+00 4.914369999999999905e+00 4.728790000000000049e+00 2.109750000000000014e+00 4.914369999999999905e+00 4.728790000000000049e+00 6.329259999999999664e+00 3.276149999999999896e+00 7.566150000000000375e+00 2.109750000000000014e+00 3.276149999999999896e+00 7.566150000000000375e+00 6.329259999999999664e+00 -3.000000000000000076e-05 1.891520000000000090e+00 4.219509999999999650e+00 -6.999999999999999387e-05 3.783030000000000115e+00 2.109750000000000014e+00 -6.999999999999999387e-05 3.783030000000000115e+00 6.329259999999999664e+00 -1.638200000000000101e+00 4.728790000000000049e+00 4.219509999999999650e+00 -3.276419999999999888e+00 7.566150000000000375e+00 0.000000000000000000e+00 -1.638279999999999959e+00 6.620400000000000063e+00 6.329259999999999664e+00 -3.276419999999999888e+00 7.566150000000000375e+00 4.219509999999999650e+00 4.914340000000000153e+00 9.457600000000000451e-01 2.109750000000000014e+00 3.276199999999999779e+00 1.891520000000000090e+00 0.000000000000000000e+00 3.276199999999999779e+00 1.891520000000000090e+00 4.219509999999999650e+00 3.276170000000000027e+00 3.783030000000000115e+00 2.109750000000000014e+00 3.276170000000000027e+00 3.783030000000000115e+00 6.329259999999999664e+00 1.638039999999999941e+00 4.728790000000000049e+00 4.219509999999999650e+00 1.637950000000000017e+00 6.620400000000000063e+00 2.109750000000000014e+00 1.637950000000000017e+00 6.620400000000000063e+00 6.329259999999999664e+00 -1.800000000000000113e-04 7.566150000000000375e+00 4.219509999999999650e+00 8.190670000000000783e+00 9.457600000000000451e-01 2.109750000000000014e+00 6.552539999999999587e+00 1.891520000000000090e+00 0.000000000000000000e+00 8.190670000000000783e+00 9.457600000000000451e-01 6.329259999999999664e+00 6.552509999999999835e+00 3.783030000000000115e+00 6.329259999999999664e+00 4.914369999999999905e+00 4.728790000000000049e+00 4.219509999999999650e+00 3.276149999999999896e+00 7.566150000000000375e+00 0.000000000000000000e+00 4.914290000000000269e+00 6.620400000000000063e+00 6.329259999999999664e+00 3.276149999999999896e+00 7.566150000000000375e+00 4.219509999999999650e+00
1.638099999999999890e+00 9.457600000000000451e-01 2.109750000000000014e+00 -3.000000000000000076e-05 1.891520000000000090e+00 0.000000000000000000e+00 -6.999999999999999387e-05 3.783030000000000115e+00 2.109750000000000014e+00 -1.638200000000000101e+00 4.728790000000000049e+00 0.000000000000000000e+00 -1.638279999999999959e+00 6.620400000000000063e+00 6.329259999999999664e+00 4.914340000000000153e+00 9.457600000000000451e-01 2.109750000000000014e+00 4.914340000000000153e+00 9.457600000000000451e-01 6.329259999999999664e+00 3.276170000000000027e+00 3.783030000000000115e+00 6.329259999999999664e+00 1.638039999999999941e+00 4.728790000000000049e+00 4.219509999999999650e+00 4.914369999999999905e+00 4.728790000000000049e+00 4.219509999999999650e+00 4.914290000000000269e+00 6.620400000000000063e+00 2.109750000000000014e+00 3.276149999999999896e+00 7.566150000000000375e+00 4.219509999999999650e+00 1.638099999999999890e+00 9.457600000000000451e-01 0.000000000000000000e+00 1.638099999999999890e+00 9.457600000000000451e-01 4.219509999999999650e+00 -6.999999999999999387e-05 3.783030000000000115e+00 0.000000000000000000e+00 -6.999999999999999387e-05 3.783030000000000115e+00 4.219509999999999650e+00 -1.638279999999999959e+00 6.620400000000000063e+00 0.000000000000000000e+00 -1.638279999999999959e+00 6.620400000000000063e+00 4.219509999999999650e+00 4.914340000000000153e+00 9.457600000000000451e-01 0.000000000000000000e+00 4.914340000000000153e+00 9.457600000000000451e-01 4.219509999999999650e+00 3.276170000000000027e+00 3.783030000000000115e+00 0.000000000000000000e+00 3.276170000000000027e+00 3.783030000000000115e+00 4.219509999999999650e+00 1.637950000000000017e+00 6.620400000000000063e+00 0.000000000000000000e+00 1.637950000000000017e+00 6.620400000000000063e+00 4.219509999999999650e+00 8.190670000000000783e+00 9.457600000000000451e-01 0.000000000000000000e+00 8.190670000000000783e+00 9.457600000000000451e-01 4.219509999999999650e+00 6.552509999999999835e+00 3.783030000000000115e+00 0.000000000000000000e+00 6.552509999999999835e+00 3.783030000000000115e+00 4.219509999999999650e+00 4.914290000000000269e+00 6.620400000000000063e+00 0.000000000000000000e+00 4.914290000000000269e+00 6.620400000000000063e+00 4.219509999999999650e+00 -3.000000000000000076e-05 1.891520000000000090e+00 2.109750000000000014e+00 -3.000000000000000076e-05 1.891520000000000090e+00 6.329259999999999664e+00 -1.638200000000000101e+00 4.728790000000000049e+00 2.109750000000000014e+00 -1.638200000000000101e+00 4.728790000000000049e+00 6.329259999999999664e+00 -3.276419999999999888e+00 7.566150000000000375e+00 2.109750000000000014e+00 -3.276419999999999888e+00 7.566150000000000375e+00 6.329259999999999664e+00 3.276199999999999779e+00 1.891520000000000090e+00 2.109750000000000014e+00 3.276199999999999779e+00 1.891520000000000090e+00 6.329259999999999664e+00 1.638039999999999941e+00 4.728790000000000049e+00 2.109750000000000014e+00 1.638039999999999941e+00 4.728790000000000049e+00 6.329259999999999664e+00 -1.800000000000000113e-04 7.566150000000000375e+00 2.109750000000000014e+00 -1.800000000000000113e-04 7.566150000000000375e+00 6.329259999999999664e+00 6.552539999999999587e+00 1.891520000000000090e+00 2.109750000000000014e+00 6.552539999999999587e+00 1.891520000000000090e+00 6.329259999999999664e+00 4.914369999999999905e+00 4.728790000000000049e+00 2.109750000000000014e+00 4.914369999999999905e+00 4.728790000000000049e+00 6.329259999999999664e+00 3.276149999999999896e+00 7.566150000000000375e+00 2.109750000000000014e+00 3.276149999999999896e+00 7.566150000000000375e+00 6.329259999999999664e+00 1.638099999999999890e+00 9.457600000000000451e-01 6.329259999999999664e+00 -3.000000000000000076e-05 1.891520000000000090e+00 4.219509999999999650e+00 -6.999999999999999387e-05 3.783030000000000115e+00 6.329259999999999664e+00 -1.638200000000000101e+00 4.728790000000000049e+00 4.219509999999999650e+00 -1.638279999999999959e+00 6.620400000000000063e+00 2.109750000000000014e+00 -3.276419999999999888e+00 7.566150000000000375e+00 0.000000000000000000e+00 -3.276419999999999888e+00 7.566150000000000375e+00 4.219509999999999650e+00 3.276199999999999779e+00 1.891520000000000090e+00 0.000000000000000000e+00 3.276199999999999779e+00 1.891520000000000090e+00 4.219509999999999650e+00 3.276170000000000027e+00 3.783030000000000115e+00 2.109750000000000014e+00 1.638039999999999941e+00 4.728790000000000049e+00 0.000000000000000000e+00 1.637950000000000017e+00 6.620400000000000063e+00 2.109750000000000014e+00 -1.800000000000000113e-04 7.566150000000000375e+00 0.000000000000000000e+00 1.637950000000000017e+00 6.620400000000000063e+00 6.329259999999999664e+00 -1.800000000000000113e-04 7.566150000000000375e+00 4.219509999999999650e+00 8.190670000000000783e+00 9.457600000000000451e-01 2.109750000000000014e+00 6.552539999999999587e+00 1.891520000000000090e+00 0.000000000000000000e+00 8.190670000000000783e+00 9.457600000000000451e-01 6.329259999999999664e+00 6.552539999999999587e+00 1.891520000000000090e+00 4.219509999999999650e+00 6.552509999999999835e+00 3.783030000000000115e+00 2.109750000000000014e+00 4.914369999999999905e+00 4.728790000000000049e+00 0.000000000000000000e+00 6.552509999999999835e+00 3.783030000000000115e+00 6.329259999999999664e+00 3.276149999999999896e+00 7.566150000000000375e+00 0.000000000000000000e+00 4.914290000000000269e+00 6.620400000000000063e+00 6.329259999999999664e+00