-5.678302797899999632e+02
-5.678137703099999953e+02
-5.678956475899999532e+02
-5.679536759300000313e+02
-5.679156547600000522e+02
-5.662148883999999498e+02
-5.661568264500000396e+02
-5.661039722900000015e+02
-5.661293414900000016e+02
-5.661165363400000388e+02
-5.662537668899999517e+02
-5.660751990500000375e+02
-5.661300758899999437e+02
-5.660241298099999767e+02
-5.662799258300000247e+02
