-1.571379999999999999e-01 1.844059999999999866e-01 -1.026230000000000059e-01 1.380810000000000093e-01 -1.259760000000000046e-01 8.975299999999999945e-02 -2.788329999999999975e-01 1.864400000000000085e-02 9.911899999999999877e-02 1.795049999999999979e-01 7.144899999999999862e-02 -7.058100000000000485e-02 1.653070000000000095e-01 -1.428969999999999962e-01 -3.292700000000000071e-01 7.827000000000000624e-03 -5.994100000000000122e-02 1.312359999999999915e-01 -2.234099999999999975e-01 1.330089999999999884e-01 -1.009599999999999942e-01 1.976350000000000051e-01 9.252599999999999714e-02 2.245739999999999958e-01 -1.191210000000000047e-01 5.249000000000000193e-02 -1.538140000000000063e-01 2.011699999999999947e-02 1.495999999999999934e-02 5.067319999999999602e-01 9.572400000000000353e-02 -4.558799999999999658e-02 -1.731010000000000049e-01 -3.721399999999999708e-02 8.559999999999999901e-04 -1.199670000000000042e-01 -3.452364999999999906e+00 -2.011712000000000167e+00 -2.663499999999999895e-02 -3.530428999999999817e+00 1.922053999999999929e+00 2.236700000000000146e-02 -4.367999999999999661e-02 1.670900000000000163e-02 1.744663000000000075e+00 -9.156899999999999762e-02 -3.769178999999999835e+00 -1.205062000000000078e+00 -3.022638999999999854e+00 -1.768740999999999897e+00 -1.501500000000000057e-02 7.652100000000000568e-02 1.012320000000000025e-01 3.906699999999999756e-02 5.847800000000000220e-02 -4.689999999999999725e-03 9.543570000000000109e-01 3.341816000000000120e+00 1.797010999999999914e+00 -1.202425999999999995e+00 -3.283962999999999965e+00 1.842481000000000035e+00 1.176444999999999963e+00 4.152900000000000341e-02 6.681199999999999639e-02 -9.501699999999999591e-01 -1.029019999999999935e-01 -3.751110000000000166e+00 1.176982999999999890e+00 -7.185999999999999333e-02 2.432000000000000134e-02 -9.347649999999999570e-01 3.036417999999999839e+00 1.765744999999999898e+00 -2.795500000000000068e-02 -6.876000000000000167e-02 3.529100000000000126e+00 6.660000000000000121e-03 3.121087999999999862e+00 1.801978999999999997e+00 -3.997599999999999765e-02 -1.634000000000000036e-02 -3.577395000000000103e+00 9.929000000000000326e-03 3.112490999999999897e+00 1.769384999999999986e+00 -8.831000000000000308e-03 4.415999999999999787e-03 -4.753600000000000186e-02 1.092100000000000015e-02 3.629789999999999850e+00 2.010769999999999946e+00 1.972099999999999895e-02 3.473094000000000126e+00 -2.012567000000000217e+00 8.739000000000000240e-03 3.288641000000000147e+00 -1.853568000000000104e+00 -1.200712000000000002e+00 -1.033359999999999973e-01 -7.222000000000000121e-03 9.466670000000000362e-01 4.567899999999999738e-02 3.868510000000000115e+00 -1.176412000000000013e+00 1.399500000000000050e-02 3.757505000000000095e+00 1.151794999999999902e+00 3.180199999999999694e-02 9.400999999999999635e-03 -1.048900000000000006e-02 -3.035517000000000021e+00 -1.761478000000000099e+00 2.818599999999999925e-02 5.619099999999999789e-02 3.400799999999999657e-02 -1.761498999999999926e+00 2.633900000000000130e-02 6.250600000000000600e-02 9.729799999999999560e-01 3.000325999999999826e+00 1.741235000000000088e+00 3.469599999999999768e-02 -2.983099999999999988e-02 -5.772399999999999753e-02 -4.438600000000000184e-02 -3.400894000000000084e+00 -1.864041999999999977e+00 1.242234000000000060e+00 -1.084899999999999927e-02 1.056900000000000062e-01 -9.520929999999999671e-01 -3.099626000000000214e+00 -1.779681999999999986e+00 5.384800000000000003e-02 1.136000000000000065e-01 1.658799999999999858e-02 -3.717399999999999871e-02 -3.079819000000000084e+00 -1.904986999999999986e+00 1.576200000000000170e-02 3.588000000000000217e-02 -4.993899999999999728e-02 -1.574000000000000095e-03 2.606919999999999793e-01 -4.532280000000000197e-01 7.270459999999999701e-01 3.358389999999999986e-01 -5.278110000000000301e-01 -3.643509999999999804e-01 -1.598300000000000068e-02 -5.385000000000000203e-02 -9.360749999999999904e-01 -3.109899999999999887e-01 -1.779599999999999932e-02 9.429340000000000499e-01 -2.685710000000000042e-01 8.448689999999999811e-01 1.216310000000000030e-01 -5.693169999999999620e-01 -2.181669999999999998e-01 8.145839999999999748e-01 2.187010000000000065e-01 8.780100000000000404e-02 -4.986659999999999981e-01 -3.676840000000000108e-01 1.569109999999999949e-01 -8.089560000000000084e-01 -5.689349999999999685e-01 1.456040000000000112e-01 3.833860000000000046e-01 7.821100000000000274e-02 -2.161970000000000003e-01 -1.171240000000000059e+00 1.833740000000000092e-01 -5.612999999999999934e-03 8.492910000000000181e-01 4.565999999999999920e-02 -4.210679999999999978e-01 4.185610000000000164e-01 6.520500000000000185e-01 2.640159999999999729e-01 -8.541220000000000478e-01 2.314960000000000073e-01 5.147859999999999658e-01 4.873569999999999847e-01 -8.407000000000000584e-02 -7.698199999999999488e-02 3.802449999999999997e-01 5.313780000000000170e-01 4.327690000000000148e-01 -5.036690000000000333e-01 2.338999999999999968e-01 -4.965149999999999841e-01 2.376500000000000140e-02 -3.216579999999999995e-01 1.056089999999999945e-01 4.153580000000000050e-01 3.398920000000000274e-01 -2.033689999999999942e-01 -3.566500000000000226e-02 -4.216679999999999873e-01 -4.355760000000000187e-01 -4.149789999999999868e-01 -2.663899999999999949e-02 2.552010000000000112e-01 -5.038829999999999698e-01 -6.954299999999999371e-02 -2.948020000000000085e-01 4.130199999999999982e-01 2.598139999999999894e-01 4.175510000000000055e-01 5.020430000000000170e-01 -3.981410000000000227e-01 -1.954499999999999987e-02 -4.095550000000000024e-01
-1.603259999999999963e-01 1.660999999999999976e-01 -1.057639999999999969e-01 3.542549999999999866e-01 4.635399999999999937e-02 2.562499999999999847e-02 -1.576279999999999903e-01 2.173289999999999944e-01 1.318300000000000027e-01 2.604609999999999981e-01 -1.624180000000000068e-01 -2.781300000000000092e-02 5.034399999999999986e-02 9.057500000000000273e-02 2.129679999999999906e-01 -7.063300000000000134e-02 -1.310089999999999866e-01 -1.341469999999999885e-01 -3.553979999999999917e-01 1.029950000000000032e-01 -3.365509999999999891e-01 1.544399999999999940e-02 8.265599999999999337e-02 1.369849999999999957e-01 2.982500000000000082e-02 -1.125629999999999964e-01 -3.292680000000000051e-01 -2.590500000000000094e-02 8.067100000000000659e-02 3.731329999999999925e-01 2.145229999999999915e-01 -4.701299999999999923e-02 1.309009999999999896e-01 5.690200000000000119e-02 1.945399999999999907e-02 4.983900000000000136e-02 -8.120399999999999840e-02 4.107632999999999868e+00 -1.995399999999999952e-02 -3.484161999999999981e+00 2.026165999999999912e+00 4.000800000000000189e-02 -4.567899999999999738e-02 2.964200000000000168e-02 6.980000000000000093e-03 -1.952399999999999969e-02 -3.527919999999999945e+00 1.668999999999999911e-03 1.576609999999999956e-01 -3.873431000000000068e+00 1.241959999999999953e+00 1.247250000000000025e-01 3.100400000000000031e-02 -9.604589999999999517e-01 -3.256070999999999938e+00 1.913890000000000091e+00 -1.183410999999999991e+00 5.114099999999999896e-02 -7.667799999999999616e-02 9.270540000000000447e-01 -3.331660999999999984e+00 -1.857042999999999999e+00 -1.451484999999999914e+00 5.472099999999999881e-02 4.561899999999999983e-02 9.537520000000000442e-01 -5.424799999999999761e-02 -3.798840000000000217e+00 -1.209727999999999914e+00 -6.766700000000000492e-02 3.988799999999999985e-02 9.566480000000000539e-01 3.043432999999999833e+00 1.827541000000000082e+00 5.102799999999999697e-02 2.994568000000000119e+00 1.766688000000000036e+00 -5.246499999999999775e-02 3.196938999999999975e+00 1.676587000000000049e+00 1.905499999999999902e-02 -7.592599999999999349e-02 -5.207500000000000323e-02 -8.706000000000000197e-03 -1.041620000000000046e-01 2.231800000000000103e-02 1.021995999999999905e+00 -6.766099999999999892e-02 -7.129299999999999526e-02 -9.922619999999999774e-01 3.401949999999999807e+00 -2.149224999999999941e+00 5.291099999999999970e-02 3.530562000000000200e+00 -1.993940999999999963e+00 -5.772100000000000147e-02 -1.826109999999999955e-01 3.813451999999999842e+00 -1.205403999999999920e+00 -1.210240000000000066e-01 -3.161800000000000027e-02 9.659799999999999498e-01 -2.687200000000000005e-02 -1.007190000000000030e-01 1.345999999999999974e-03 8.392099999999999560e-02 3.565005000000000202e+00 -5.878000000000000412e-03 -3.196067000000000213e+00 -2.027140999999999860e+00 -1.216275999999999913e+00 2.667900000000000132e-02 -5.979099999999999693e-02 1.756605999999999890e+00 2.372099999999999903e-02 3.882200000000000234e-02 -9.623690000000000300e-01 3.268629999999999924e+00 1.925413000000000041e+00 1.453329000000000093e+00 -3.190618000000000176e+00 -1.711365000000000025e+00 1.005900000000000023e-02 3.082924000000000220e+00 1.810607000000000077e+00 -2.136000000000000051e-02 3.671100000000000058e-02 6.048800000000000010e-02 1.297300000000000016e-02 -3.147079999999999878e+00 -1.725770999999999944e+00 -1.334600000000000022e-02 2.005240000000000078e-01 3.613729999999999887e+00 2.667399999999999979e-02 -2.996535999999999866e+00 -1.867116999999999916e+00 -5.472799999999999887e-02 3.215936999999999824e+00 -1.688161000000000023e+00 -2.904199999999999837e-02 -3.157935000000000159e+00 -1.763335000000000097e+00 1.901399999999999965e-02 3.143449999999999855e-01 -2.399350000000000094e-01 -8.809630000000000516e-01 2.849019999999999886e-01 -3.528789999999999982e-01 8.788599999999999746e-01 -5.286199999999999927e-02 2.049410000000000120e-01 -4.887779999999999903e-01 -7.043900000000000161e-02 3.214670000000000027e-01 9.160859999999999559e-01 1.508829999999999893e-01 -2.577209999999999779e-01 3.773710000000000120e-01 -2.713999999999999746e-01 4.513710000000000222e-01 -9.420410000000000172e-01 -6.327270000000000394e-01 3.453300000000000120e-02 -3.685229999999999895e-01 -5.302200000000000246e-01 1.716300000000000117e-02 7.525220000000000242e-01 -6.417460000000000386e-01 -2.940600000000000158e-02 -8.300969999999999738e-01 4.036020000000000163e-01 -1.882999999999999952e-02 8.018579999999999597e-01 1.184699999999999989e-02 -7.305380000000000207e-01 -3.618890000000000162e-01 -2.144189999999999985e-01 -2.966300000000000048e-01 -4.445779999999999732e-01 2.527899999999999939e-02 -3.078600000000000086e-02 4.433190000000000186e-01 1.025282999999999944e+00 2.004469999999999863e-01 8.070800000000000196e-02 -2.670150000000000023e-01 1.309839999999999893e-01 -5.231940000000000479e-01 6.548469999999999569e-01 8.471399999999999764e-02 -8.369799999999999462e-02 -1.946839999999999959e-01 -5.862400000000000250e-02 5.291569999999999885e-01 3.274369999999999781e-01 5.923359999999999737e-01 -4.199030000000000262e-01 -3.691650000000000209e-01 2.778360000000000274e-01 -3.160700000000000315e-02 7.370599999999999374e-02 1.101270000000000027e-01 4.316459999999999742e-01 -3.779870000000000174e-01 2.420539999999999914e-01 2.862999999999999920e-02 3.011110000000000175e-01 -6.162840000000000540e-01 -5.007600000000000245e-02 -2.809309999999999863e-01 3.577999999999999931e-02 -6.712400000000000311e-02 2.304489999999999872e-01 -3.642830000000000235e-01 5.012899999999999995e-02
-1.258330000000000004e-01 1.751230000000000009e-01 -5.929399999999999948e-02 1.152269999999999961e-01 -8.046699999999999686e-02 5.938299999999999829e-02 -2.020790000000000086e-01 -2.124580000000000080e-01 5.947600000000000109e-02 2.081459999999999977e-01 -1.437209999999999877e-01 1.452360000000000040e-01 -9.658999999999999184e-03 4.400000000000000157e-04 -3.410999999999999970e-03 -4.271300000000000097e-02 1.648519999999999985e-01 2.150099999999999928e-02 -3.218460000000000210e-01 -6.744200000000000195e-02 1.550700000000000134e-01 -8.193300000000000582e-02 1.323660000000000114e-01 -2.523279999999999967e-01 1.296769999999999867e-01 -3.138599999999999723e-02 -1.670969999999999955e-01 -1.423079999999999901e-01 7.291999999999999871e-02 -8.007000000000000228e-03 1.035699999999999954e-01 1.234200000000000054e-02 2.306900000000000062e-01 2.334880000000000011e-01 4.725800000000000139e-02 -1.611350000000000005e-01 -3.430749000000000049e+00 1.978914000000000062e+00 -3.827900000000000053e-02 9.673299999999999954e-02 -4.095678000000000374e+00 4.814700000000000230e-02 -2.812399999999999969e-02 -3.726456000000000213e+00 1.231532000000000071e+00 -4.497999999999999915e-02 3.922708000000000084e+00 -1.486580000000000013e+00 3.163982999999999990e+00 1.823733000000000049e+00 3.342500000000000332e-02 -3.077897999999999801e+00 -1.787900000000000045e+00 -1.598000000000000115e-02 2.623100000000000084e-02 -3.595059000000000005e+00 1.558099999999999936e-02 5.786000000000000171e-02 1.408419999999999950e-01 -3.735100000000000225e-02 1.628940000000000110e-01 7.391999999999999960e-02 9.656970000000000276e-01 -3.287304999999999922e+00 1.867358000000000073e+00 -1.213497000000000048e+00 -3.311549999999999994e+00 1.938593000000000011e+00 -1.238226999999999967e+00 -2.338799999999999907e-02 -3.768215999999999788e+00 1.236453999999999942e+00 3.213623000000000118e+00 1.863121000000000027e+00 -1.199562999999999935e+00 -1.385530000000000095e-01 2.096999999999999906e-03 9.533730000000000260e-01 -1.429300000000000015e-01 5.266099999999999948e-02 -9.777449999999999752e-01 3.273524000000000100e+00 1.886857000000000006e+00 1.235959000000000030e+00 -4.515299999999999869e-02 -1.724489999999999912e-01 7.499400000000000510e-02 3.125067000000000039e+00 1.712523000000000017e+00 -5.612000000000000322e-02 3.344405000000000072e+00 1.854683999999999999e+00 -1.488331000000000071e+00 -1.025099999999999970e-02 -3.904148000000000174e+00 1.487409999999999899e+00 3.254433000000000131e+00 -1.901132999999999962e+00 1.199475999999999987e+00 -3.372009999999999952e+00 -1.988315000000000055e+00 -1.226102000000000025e+00 -3.542900000000000216e-02 3.842468000000000217e+00 1.189805999999999919e+00 -6.908799999999999664e-02 3.888271000000000033e+00 -1.210644999999999971e+00 -3.064130000000000020e+00 1.806878999999999902e+00 2.552499999999999908e-02 -3.166723000000000177e+00 -1.811209000000000069e+00 -3.119099999999999998e-02 7.794500000000000040e-02 -3.851907000000000192e+00 1.501694000000000084e+00 1.141490000000000005e-01 3.878871999999999876e+00 -1.261077000000000004e+00 -3.337999999999999995e-02 1.798200000000000146e-02 -1.063839999999999897e+00 3.370702000000000087e+00 -1.864683000000000090e+00 1.308591000000000060e+00 -6.717499999999999860e-02 1.870600000000000041e-02 5.488799999999999929e-02 3.126082999999999945e+00 1.803892999999999969e+00 -3.713299999999999934e-02 -3.141281000000000212e+00 -1.746364999999999945e+00 -6.358099999999999863e-02 3.179269999999999818e+00 -1.857045999999999975e+00 4.809499999999999886e-02 1.054250000000000048e-01 -4.979900000000000299e-02 -1.283999999999999985e-03 -3.051013000000000197e+00 1.822429999999999994e+00 -5.696999999999999807e-03 2.744550000000000045e-01 -2.782419999999999893e-01 -9.806700000000000139e-02 1.999440000000000106e-01 -5.757050000000000223e-01 2.092000000000000109e-03 -1.435770000000000102e-01 -1.451200000000000059e-02 -3.487069999999999892e-01 2.993819999999999815e-01 1.547070000000000112e-01 5.153429999999999955e-01 -6.421499999999999431e-02 1.044677999999999995e+00 -2.619399999999999853e-02 -1.451599999999999939e-02 -8.299000000000000821e-03 -4.919859999999999789e-01 -1.598759999999999903e-01 -3.388720000000000065e-01 -5.102839999999999598e-01 -9.511190000000000477e-01 -6.557799999999999740e-02 5.301500000000000101e-01 1.285519999999999996e-01 -4.776889999999999747e-01 5.026789999999999869e-01 -8.835730000000000528e-01 -1.925979999999999914e-01 -5.324839999999999574e-01 -2.122630000000000072e-01 -1.864989999999999981e-01 4.846579999999999777e-01 -3.402859999999999774e-01 2.294200000000000128e-01 -4.032609999999999806e-01 -3.539140000000000064e-01 -3.373929999999999985e-01 2.194700000000000123e-02 1.513589999999999935e-01 -4.183379999999999876e-01 4.290869999999999962e-01 5.139139999999999819e-01 2.819300000000000139e-01 -5.061139999999999528e-01 5.799739999999999895e-01 8.001400000000000179e-02 -9.089920000000000222e-01 6.101370000000000404e-01 2.038119999999999932e-01 9.145729999999999693e-01 3.739819999999999811e-01 -1.268239999999999923e-01 4.229459999999999886e-01 1.639999999999999965e-03 -4.302759999999999918e-01 -1.449999999999999900e-03 7.318299999999999805e-02 -6.424199999999999355e-02 7.759999999999999971e-04 7.681000000000000327e-02 3.856269999999999976e-01 5.044549999999999867e-01 -3.454470000000000041e-01 5.044610000000000483e-01 -9.334219999999999740e-01 3.365360000000000018e-01 3.575309999999999877e-01 -4.891599999999999837e-01 -1.660320000000000129e-01 1.259109999999999951e-01 9.429060000000000219e-01
-1.329369999999999996e-01 -7.582000000000000198e-03 -7.137899999999999801e-02 2.644909999999999761e-01 -8.638999999999999457e-02 -2.118700000000000097e-02 -4.263000000000000123e-02 -1.235100000000000087e-02 7.233399999999999552e-02 3.024699999999999958e-02 2.198370000000000046e-01 3.970290000000000208e-01 -8.083700000000000607e-02 -7.346199999999999952e-02 -3.369179999999999953e-01 1.915100000000000136e-02 -1.801649999999999918e-01 -1.065969999999999973e-01 -8.738300000000000234e-02 1.003020000000000023e-01 -2.026400000000000076e-02 -1.068640000000000007e-01 -2.063770000000000049e-01 -5.005099999999999827e-02 -1.096570000000000045e-01 5.022700000000000081e-02 5.027600000000000124e-02 1.564700000000000119e-02 2.797589999999999799e-01 -1.050849999999999979e-01 7.034100000000000075e-02 3.429559999999999831e-01 3.609729999999999883e-01 1.723290000000000100e-01 -1.050979999999999970e-01 -1.571249999999999869e-01 -3.505072000000000187e+00 2.194281999999999844e+00 -1.235499999999999966e-02 -7.086000000000000285e-03 -1.319200000000000060e-02 2.252699999999999841e-02 6.776200000000000279e-02 -1.312299999999999925e-02 -3.921399999999999886e-02 7.586199999999999888e-02 3.316600000000000104e-02 3.606800000000000284e-02 3.375859000000000165e+00 -1.934754000000000085e+00 1.465133999999999936e+00 -1.158400000000000055e-02 3.138799999999999923e-02 -9.414959999999999996e-01 3.415499999999999786e-02 -3.910648999999999820e+00 -1.229154999999999998e+00 3.276895999999999809e+00 1.900428999999999924e+00 1.201583999999999985e+00 -6.267999999999999960e-02 3.585287999999999808e+00 -3.359999999999999814e-04 -6.987899999999999667e-02 1.730000000000000038e-04 -9.468000000000000721e-03 -3.066793000000000102e+00 -1.863258000000000081e+00 1.417500000000000010e-02 6.706399999999999861e-02 -2.977000000000000132e-02 -1.278900000000000002e-02 3.124839000000000144e+00 1.882044000000000050e+00 1.528200000000000044e-02 -3.097871000000000041e+00 1.699488000000000110e+00 2.028999999999999988e-03 -1.933999999999999955e-03 3.768225999999999853e+00 1.479667999999999983e+00 -5.862000000000000023e-03 -3.821247000000000060e+00 -1.183743999999999907e+00 -7.219299999999999329e-02 -3.843729000000000173e+00 1.206924000000000108e+00 -2.633599999999999830e-02 3.597000000000000197e-02 -9.235579999999999901e-01 3.290595000000000159e+00 -2.057663999999999938e+00 -1.239676999999999918e+00 3.311809999999999921e+00 -1.883531999999999984e+00 1.216279000000000110e+00 -3.344351000000000074e+00 1.914571999999999941e+00 -1.441859999999999919e+00 -6.453000000000000402e-03 -1.064360000000000028e-01 9.202580000000000204e-01 -4.419200000000000211e-02 1.676899999999999918e-02 4.693300000000000249e-02 1.890299999999999966e-02 3.580554999999999932e+00 -3.601399999999999740e-02 -3.102529000000000092e+00 -1.864517999999999898e+00 -9.357000000000000733e-03 3.011999999999999920e-03 -3.570332000000000061e+00 1.207599999999999993e-02 1.754000000000000004e-02 5.037099999999999911e-02 -9.480429999999999691e-01 -4.487000000000000016e-02 2.607599999999999849e-02 9.090399999999999592e-01 -3.292429999999999968e+00 -1.846525999999999890e+00 -1.244744000000000073e+00 -8.543999999999999512e-03 3.810493000000000130e+00 1.207148000000000110e+00 2.127799999999999830e-02 3.832664999999999988e+00 1.238212000000000090e+00 -3.296266999999999836e+00 -1.864597000000000060e+00 -1.236159999999999926e+00 3.335677000000000003e+00 1.932487000000000066e+00 -1.492677000000000032e+00 5.609499999999999903e-02 -2.655499999999999874e-02 9.848649999999999904e-01 3.111146999999999885e+00 -1.741983999999999977e+00 2.620700000000000113e-02 -5.145799999999999680e-02 1.180800000000000079e-02 -4.955999999999999989e-02 5.975409999999999888e-01 -2.819479999999999764e-01 2.453500000000000125e-02 7.032800000000000162e-02 6.326199999999999879e-02 -1.287414000000000058e+00 2.589920000000000000e-01 -1.435799999999999924e-02 1.318505999999999956e+00 -2.704380000000000117e-01 3.644800000000000123e-02 -8.806469999999999576e-01 -2.943499999999999936e-02 2.403909999999999936e-01 8.721659999999999968e-01 3.416170000000000040e-01 1.143929999999999947e-01 8.082949999999999857e-01 4.650999999999999752e-03 4.277549999999999963e-01 -9.057450000000000223e-01 -2.473900000000000057e-02 -1.541810000000000125e-01 1.445059999999999956e-01 -5.373919999999999808e-01 -5.427159999999999762e-01 -5.169820000000000526e-01 -2.448240000000000138e-01 -4.776480000000000170e-01 5.248289999999999900e-01 -9.108199999999999630e-02 4.591230000000000033e-01 -8.111439999999999761e-01 -3.329900000000000221e-02 2.606959999999999833e-01 8.219260000000000455e-01 1.770299999999999999e-02 1.107700000000000004e-02 3.775799999999999990e-02 -3.483939999999999815e-01 -5.679089999999999971e-01 -8.709970000000000212e-01 -2.946520000000000250e-01 -1.212399999999999936e-02 8.907559999999999922e-01 -1.451890000000000125e-01 2.130060000000000009e-01 8.686599999999999877e-02 3.581750000000000211e-01 4.461359999999999770e-01 1.084279999999999966e-01 -2.086989999999999956e-01 1.724289999999999989e-01 -6.444700000000000428e-02 1.118000000000000070e-02 5.374199999999999811e-02 -9.322999999999999343e-02 -2.378329999999999889e-01 -4.317999999999999790e-03 2.849990000000000023e-01 2.495340000000000058e-01 3.801299999999999818e-02 -8.428970000000000073e-01 3.538589999999999791e-01 -3.699279999999999791e-01 3.922919999999999741e-01 -6.116100000000000009e-02 -1.725140000000000007e-01 3.976990000000000247e-01 1.815499999999999892e-01 -1.748689999999999967e-01 -4.062660000000000160e-01
-9.109299999999999342e-02 3.465800000000000131e-02 -1.918630000000000058e-01 -1.027199999999999988e-02 3.243399999999999755e-02 3.683670000000000000e-01 1.683119999999999894e-01 2.185799999999999896e-02 -2.415229999999999877e-01 4.113800000000000096e-02 -4.315000000000000085e-02 1.414499999999999959e-02 -6.646799999999999931e-02 1.156500000000000063e-02 1.804989999999999928e-01 -7.225800000000000278e-02 -1.034420000000000062e-01 -7.770000000000000214e-04 -8.567700000000000315e-02 8.809400000000000563e-02 -1.675999999999999972e-03 1.310570000000000068e-01 1.337260000000000115e-01 -3.796680000000000055e-01 2.548860000000000015e-01 3.608900000000000302e-02 -5.800999999999999733e-03 -3.665320000000000245e-01 1.948169999999999902e-01 4.423499999999999654e-02 -1.697720000000000062e-01 4.563500000000000195e-02 3.551869999999999750e-01 8.058400000000000285e-02 -3.361600000000000144e-01 -1.730559999999999876e-01 -3.276619000000000170e+00 1.942260000000000097e+00 1.230712999999999946e+00 -4.461500000000000188e-02 -2.252999999999999794e-03 -1.003897000000000039e+00 -3.356567000000000078e+00 -1.923424999999999940e+00 1.476226999999999956e+00 3.282207999999999792e+00 1.914207999999999910e+00 -1.219263999999999903e+00 7.449100000000000166e-02 -3.827913000000000121e+00 -1.283662999999999998e+00 2.681999999999999922e-03 -5.410100000000000325e-02 1.064650000000000096e+00 -5.559999999999999621e-04 -2.840200000000000016e-02 4.187300000000000050e-02 6.302000000000000657e-02 1.001900000000000013e-02 -4.133900000000000075e-02 3.099400000000000072e-02 -7.126000000000000389e-03 -1.012896999999999936e+00 -1.378899999999999917e-02 3.861383000000000010e+00 1.517646000000000051e+00 -3.566500000000000226e-02 8.506900000000000572e-02 8.465000000000000302e-03 3.125516000000000183e+00 -1.770923999999999943e+00 3.179999999999999776e-04 3.010759999999999881e+00 1.839182000000000095e+00 -5.333399999999999946e-02 -5.761700000000000155e-02 -3.594307999999999836e+00 4.849500000000000338e-02 3.123374999999999790e+00 1.688234999999999930e+00 2.364600000000000035e-02 -3.111782999999999966e+00 1.737287999999999943e+00 -7.617999999999999772e-03 -3.945499999999999702e-02 -2.574399999999999952e-02 1.007184999999999997e+00 -3.344472999999999807e+00 -1.919005999999999990e+00 -1.504882999999999971e+00 3.352549999999999919e+00 1.857321000000000000e+00 -1.468163000000000107e+00 -1.088360000000000022e-01 -4.708000000000000379e-03 9.519950000000000356e-01 3.296009999999999884e+00 -1.994639000000000051e+00 -1.217699000000000087e+00 3.997200000000000059e-02 3.890595999999999943e+00 1.186504999999999921e+00 -3.108621999999999996e+00 1.862716999999999956e+00 -1.264299999999999972e-02 3.186304999999999943e+00 -1.784542000000000073e+00 1.936000000000000004e-03 5.428999999999999798e-03 -3.699593000000000131e+00 -1.089000000000000037e-02 3.146815000000000140e+00 1.720212999999999992e+00 3.460900000000000087e-02 -3.345162000000000191e+00 -1.945356000000000085e+00 1.223870000000000013e+00 3.263021999999999867e+00 -1.975187000000000026e+00 -1.219794000000000045e+00 -2.147599999999999856e-02 3.683821000000000012e+00 -4.150100000000000317e-02 -3.180530000000000079e+00 1.848025000000000029e+00 3.156899999999999984e-02 -3.230984999999999996e+00 -1.789441999999999977e+00 5.437800000000000272e-02 -3.103635000000000144e+00 -1.811952999999999925e+00 -6.527399999999999869e-02 1.376110000000000111e-01 3.865251999999999910e+00 1.221419000000000032e+00 -3.216263999999999790e+00 -1.987367000000000106e+00 -1.227079999999999949e+00 3.356247000000000202e+00 -1.834818000000000060e+00 1.219831000000000110e+00 2.838500000000000051e-02 1.364360000000000017e-01 -9.745749999999999691e-01 -6.068300000000000083e-02 2.461359999999999937e-01 4.446530000000000205e-01 6.695459999999999745e-01 -6.135999999999999961e-03 -8.413340000000000263e-01 2.651359999999999828e-01 5.788900000000000295e-02 4.894879999999999787e-01 3.462680000000000202e-01 5.540779999999999594e-01 -3.091500000000000151e-02 -8.189999999999999364e-03 -2.465630000000000044e-01 -4.347570000000000046e-01 -3.356140000000000234e-01 -1.488190000000000068e-01 4.365600000000000036e-01 -1.638489999999999946e-01 -5.043399999999999966e-02 -4.469989999999999797e-01 1.888859999999999983e-01 -1.221500000000000016e-02 -5.512100000000000333e-02 3.603279999999999816e-01 -1.814899999999999847e-02 5.319200000000000317e-02 -1.138450000000000017e-01 3.963240000000000096e-01 8.583269999999999511e-01 -5.665599999999999803e-02 -4.796469999999999900e-01 1.612500000000000044e-02 3.961270000000000069e-01 -2.413599999999999912e-01 9.638280000000000181e-01 -2.736149999999999971e-01 4.156329999999999747e-01 -4.470939999999999914e-01 4.752910000000000190e-01 -1.903009999999999979e-01 -9.593439999999999745e-01 -1.490740000000000121e-01 5.228739999999999499e-01 4.515910000000000202e-01 4.460459999999999980e-01 -3.446020000000000194e-01 -9.628499999999999559e-02 -4.664719999999999978e-01 -2.808930000000000038e-01 -3.010099999999999928e-02 2.001459999999999906e-01 -4.191219999999999946e-01 1.047749999999999931e-01 -1.012615000000000043e+00 -5.811669999999999892e-01 4.171500000000000208e-02 -2.600999999999999840e-02 4.412559999999999816e-01 -8.489499999999999824e-02 -2.058949999999999947e-01 3.666699999999999959e-01 -6.979100000000000581e-02 -3.840640000000000165e-01 4.963850000000000207e-01 9.609700000000000186e-02 5.903800000000000159e-01 -1.313040000000000040e-01 4.309009999999999785e-01 -4.242150000000000087e-01 -4.238750000000000018e-01 -8.395019999999999705e-01