6.359765491000000992e+00 1.644469353072922447e-23 0.000000000000000000e+00 3.179882968717274938e+00 5.507718342499996034e+00 -6.617444900424221399e-24 3.179882834587561824e+00 1.835906175141292396e+00 5.192726652666665998e+00
6.394775357000000326e+00 0.000000000000000000e+00 0.000000000000000000e+00 3.341515633999999846e+00 5.433496715999999616e+00 0.000000000000000000e+00 3.282816475999999817e+00 1.940833406000000094e+00 5.103465817000000015e+00
6.485841241000000146e+00 0.000000000000000000e+00 0.000000000000000000e+00 3.214863821999999871e+00 5.403931057000000315e+00 0.000000000000000000e+00 3.301997554999999807e+00 1.703188785000000038e+00 5.063124283999999697e+00
6.541740813999999737e+00 0.000000000000000000e+00 0.000000000000000000e+00 3.376784638999999810e+00 5.514057349999999857e+00 0.000000000000000000e+00 3.278737179000000168e+00 1.850629478999999966e+00 5.058720358000000417e+00
6.440688451999999842e+00 0.000000000000000000e+00 0.000000000000000000e+00 3.128692172000000049e+00 5.467261930000000270e+00 0.000000000000000000e+00 3.080210504000000071e+00 1.914835757000000083e+00 5.230788701999999901e+00
6.497539190000000353e+00 0.000000000000000000e+00 0.000000000000000000e+00 3.157696147999999869e+00 5.522235395000000047e+00 0.000000000000000000e+00 3.360419078000000059e+00 1.883050405000000094e+00 5.259502378999999728e+00
6.258324237000000068e+00 0.000000000000000000e+00 0.000000000000000000e+00 3.138814315999999938e+00 5.630447720000000267e+00 0.000000000000000000e+00 3.187920391000000020e+00 1.810744036000000001e+00 5.206813978999999648e+00
6.329012403000000120e+00 0.000000000000000000e+00 0.000000000000000000e+00 3.025349778999999906e+00 5.344654669999999719e+00 0.000000000000000000e+00 3.150130008000000092e+00 1.831936712999999939e+00 5.133766096999999640e+00
6.461357407999999580e+00 0.000000000000000000e+00 0.000000000000000000e+00 3.177708849000000058e+00 5.523299805999999812e+00 0.000000000000000000e+00 3.257469734999999922e+00 1.756325201999999974e+00 5.132347559000000281e+00
6.356137663000000160e+00 0.000000000000000000e+00 0.000000000000000000e+00 3.083608315999999849e+00 5.543502752000000200e+00 0.000000000000000000e+00 3.188480810000000165e+00 1.941170864999999912e+00 5.107372440999999874e+00
6.231456135000000174e+00 0.000000000000000000e+00 0.000000000000000000e+00 3.258213550999999875e+00 5.582879276999999973e+00 0.000000000000000000e+00 3.061945252000000117e+00 1.734886901000000092e+00 5.095446944999999950e+00
6.886418411000040152e+00 -1.370805737814159286e-22 -7.098729698680478726e-23 3.443210150849861151e+00 5.963812694999949926e+00 7.340211338052601435e-24 3.443210282104008257e+00 1.987938051244617199e+00 5.622736340999945348e+00
7.066271986000000283e+00 0.000000000000000000e+00 0.000000000000000000e+00 3.413421619000000184e+00 5.828242386000000330e+00 0.000000000000000000e+00 3.620394904999999941e+00 1.894685208999999926e+00 5.787492241999999898e+00
7.038722975999999854e+00 0.000000000000000000e+00 0.000000000000000000e+00 3.535583286000000047e+00 6.141594580999999664e+00 0.000000000000000000e+00 3.429911715999999888e+00 2.116426618999999842e+00 5.737311682999999718e+00
6.813965576000000191e+00 0.000000000000000000e+00 0.000000000000000000e+00 3.473284049000000095e+00 5.854370582999999684e+00 0.000000000000000000e+00 3.514915065999999921e+00 2.009932893999999859e+00 5.729320772000000339e+00
6.794252944000000127e+00 0.000000000000000000e+00 0.000000000000000000e+00 3.288963923999999928e+00 6.083102363000000068e+00 0.000000000000000000e+00 3.393765074000000048e+00 2.104656883000000089e+00 5.628918255000000315e+00
6.954373399999999705e+00 0.000000000000000000e+00 0.000000000000000000e+00 3.419168592000000118e+00 5.982546200999999897e+00 0.000000000000000000e+00 3.329599967000000049e+00 2.089114756999999933e+00 5.789355939000000006e+00
6.892250749999999648e+00 0.000000000000000000e+00 0.000000000000000000e+00 3.611061952000000019e+00 5.947495252000000399e+00 0.000000000000000000e+00 3.575704267999999963e+00 1.857442228000000028e+00 5.604214523999999642e+00
6.758921180999999834e+00 0.000000000000000000e+00 0.000000000000000000e+00 3.545963760999999881e+00 6.042987789999999748e+00 0.000000000000000000e+00 3.398301197999999967e+00 2.033506177000000026e+00 5.523300963999999702e+00
6.968030820000000070e+00 0.000000000000000000e+00 0.000000000000000000e+00 3.386027955999999950e+00 6.099551767000000346e+00 0.000000000000000000e+00 3.460451189000000038e+00 1.901211772999999994e+00 5.577374451999999927e+00
6.894181978999999849e+00 0.000000000000000000e+00 0.000000000000000000e+00 3.598314008000000008e+00 6.076737598000000240e+00 0.000000000000000000e+00 3.353482735000000048e+00 2.033160332000000015e+00 5.525328334000000119e+00
6.705100461999999872e+00 0.000000000000000000e+00 0.000000000000000000e+00 3.323489438000000185e+00 5.985547940000000011e+00 0.000000000000000000e+00 3.422359426999999954e+00 2.068765595999999984e+00 5.718137805999999657e+00
6.705100461999999872e+00 0.000000000000000000e+00 0.000000000000000000e+00 3.323489438000000185e+00 5.985547940000000011e+00 0.000000000000000000e+00 3.422359426999999954e+00 2.068765595999999984e+00 5.718137805999999657e+00
