3.179880039076284248e+00 1.835909943160368707e+00 1.298179984666647968e+00 4.769820061370011466e+00 2.753859926231082778e+00 3.894549977000001828e+00 4.769820094934939192e+00 4.589769910910395545e+00 1.298179966166645327e+00 6.359770117228665143e+00 5.507719893980906889e+00 3.894549958499984754e+00 6.359770039076283688e+00 1.835909878660221484e+00 1.298179980166638048e+00 7.949710061370010017e+00 2.753859861730935332e+00 3.894549972499991686e+00 7.949710094934937743e+00 4.589769846410248100e+00 1.298179961666635407e+00 9.539650117228664072e+00 5.507719829480961948e+00 3.894549953999989267e+00 6.359769999999998369e+00 -1.290000915126117033e-07 -9.000005619690618894e-09 7.949710022293711376e+00 9.179498540705632870e-01 2.596359983333347721e+00 7.949710055858651536e+00 2.753859838749935562e+00 -2.750000829814920563e-08 9.539650078152366319e+00 3.671809821820589903e+00 2.596359964833344858e+00 3.179879999999998930e+00 -6.449994433747191269e-08 -4.499995734113309012e-09 4.769820022293712825e+00 9.179499185707103992e-01 2.596359987833357419e+00 4.769820055858652985e+00 2.753859903250083008e+00 -2.299999841257189822e-08 6.359770078152365613e+00 3.671809886320534400e+00 2.596359969333340789e+00
3.245800000000000018e+00 1.837949999999999973e+00 1.264680000000000026e+00 4.891399999999999970e+00 2.814869999999999983e+00 3.835770000000000124e+00 4.913000000000000256e+00 4.564949999999999619e+00 1.289309999999999956e+00 6.564799999999999969e+00 5.533249999999999780e+00 3.827830000000000066e+00 6.448769999999999669e+00 1.840740000000000043e+00 1.277830000000000021e+00 8.100910000000000721e+00 2.809829999999999828e+00 3.830499999999999794e+00 8.129440000000000666e+00 4.571659999999999613e+00 1.261479999999999935e+00 9.767020000000000479e+00 5.527849999999999930e+00 3.824959999999999916e+00 9.733969999999999345e+00 5.432249999999999801e+00 1.600000000000000131e-04 8.042089999999999961e+00 9.857200000000000406e-01 2.557220000000000049e+00 4.961859999999999715e+00 4.658210000000000406e+00 5.097929999999999851e+00 9.701670000000000016e+00 3.681649999999999867e+00 2.549920000000000186e+00 9.823940000000000339e+00 7.372320000000000206e+00 5.102579999999999671e+00 8.173870000000000857e+00 6.399300000000000210e+00 2.555839999999999890e+00 4.864169999999999661e+00 2.709960000000000147e+00 7.590000000000000392e-03 6.518119999999999692e+00 3.683769999999999989e+00 2.558829999999999938e+00
3.251920000000000144e+00 1.788489999999999913e+00 1.262310000000000043e+00 4.893040000000000056e+00 2.637370000000000214e+00 3.807609999999999939e+00 4.849470000000000169e+00 4.489309999999999690e+00 1.253949999999999898e+00 6.513279999999999959e+00 5.330359999999999765e+00 3.793750000000000178e+00 6.474560000000000315e+00 1.780790000000000095e+00 1.268659999999999899e+00 8.134399999999999409e+00 2.640000000000000124e+00 3.791900000000000048e+00 8.100789999999999935e+00 4.477660000000000196e+00 1.265879999999999894e+00 9.760910000000000863e+00 5.340840000000000032e+00 3.809000000000000163e+00 3.214910000000000156e+00 5.403290000000000148e+00 2.000000000000000164e-05 1.134129000000000076e+01 6.240840000000000387e+00 2.528770000000000184e+00 1.610300000000000065e+00 2.701360000000000205e+00 4.210000000000000200e-03 3.260940000000000172e+00 3.554879999999999818e+00 2.528420000000000112e+00 9.753330000000000055e+00 7.103119999999999656e+00 5.062090000000000423e+00 8.113789999999999836e+00 6.241249999999999964e+00 2.541310000000000180e+00 8.135640000000000427e+00 4.400590000000000224e+00 5.054149999999999920e+00 6.496570000000000178e+00 3.543190000000000062e+00 2.544299999999999784e+00
3.289569999999999883e+00 1.826959999999999917e+00 1.267910000000000093e+00 4.943590000000000373e+00 2.775799999999999823e+00 3.784409999999999830e+00 5.003370000000000317e+00 4.594339999999999868e+00 1.265649999999999942e+00 6.620960000000000178e+00 5.516560000000000130e+00 3.800069999999999837e+00 6.568459999999999965e+00 1.842649999999999899e+00 1.264410000000000034e+00 8.212160000000000792e+00 2.765540000000000109e+00 3.795350000000000001e+00 8.258250000000000313e+00 4.599280000000000257e+00 1.266189999999999927e+00 9.906760000000000232e+00 5.510340000000000238e+00 3.799710000000000143e+00 3.286799999999999944e+00 1.849310000000000009e+00 5.052209999999999646e+00 5.017949999999999910e+00 6.436679999999999957e+00 2.534469999999999779e+00 4.965460000000000207e+00 4.602490000000000414e+00 5.055589999999999584e+00 3.328149999999999942e+00 3.682469999999999910e+00 2.528950000000000031e+00 6.541179999999999772e+00 1.852700000000000014e+00 5.056309999999999860e+00 8.298400000000000887e+00 6.431029999999999802e+00 2.519670000000000076e+00 4.970959999999999823e+00 2.762869999999999937e+00 1.043999999999999963e-02 6.602970000000000006e+00 3.669909999999999783e+00 2.541249999999999787e+00
3.164800000000000058e+00 1.845229999999999926e+00 1.312670000000000003e+00 4.694950000000000401e+00 2.808949999999999836e+00 3.926590000000000025e+00 4.734569999999999723e+00 4.580639999999999823e+00 1.291390000000000038e+00 6.266309999999999825e+00 5.535160000000000302e+00 3.924409999999999954e+00 6.375729999999999897e+00 1.844459999999999988e+00 1.314599999999999991e+00 7.921249999999999680e+00 2.797829999999999817e+00 3.928199999999999914e+00 7.947390000000000398e+00 4.580639999999999823e+00 1.308140000000000081e+00 9.493119999999999337e+00 5.539010000000000211e+00 3.925860000000000127e+00 3.081129999999999924e+00 1.917419999999999902e+00 5.228749999999999787e+00 1.110763000000000034e+01 6.421739999999999782e+00 2.624480000000000146e+00 8.004709999999999326e+00 2.733649999999999913e+00 3.299999999999999982e-04 3.104530000000000012e+00 3.691059999999999786e+00 2.615169999999999995e+00 6.290049999999999919e+00 1.920830000000000037e+00 5.218200000000000394e+00 4.765959999999999752e+00 9.653000000000000469e-01 2.609269999999999978e+00 4.775820000000000398e+00 2.727809999999999846e+00 1.067000000000000066e-02 6.330269999999999619e+00 3.687129999999999797e+00 2.620210000000000150e+00
3.254729999999999901e+00 1.845739999999999936e+00 1.316820000000000102e+00 4.921400000000000219e+00 2.784120000000000150e+00 3.935060000000000002e+00 4.844350000000000378e+00 4.627449999999999619e+00 1.309229999999999894e+00 6.522649999999999615e+00 5.569869999999999877e+00 3.948840000000000128e+00 6.506330000000000169e+00 1.848880000000000079e+00 1.321390000000000065e+00 8.182729999999999393e+00 2.802119999999999944e+00 3.938270000000000159e+00 8.074180000000000135e+00 4.619740000000000180e+00 1.307520000000000016e+00 9.761499999999999844e+00 5.554210000000000313e+00 3.944650000000000212e+00 9.850780000000000314e+00 1.885510000000000019e+00 5.259479999999999933e+00 8.172750000000000625e+00 9.466499999999999915e-01 2.636010000000000186e+00 1.143036000000000030e+01 4.640310000000000379e+00 5.256079999999999863e+00 9.756579999999999586e+00 3.702820000000000000e+00 2.629960000000000075e+00 9.772140000000000271e+00 7.394479999999999720e+00 5.254629999999999690e+00 8.077529999999999433e+00 6.459139999999999660e+00 2.633640000000000203e+00 4.823809999999999931e+00 2.755520000000000191e+00 7.979999999999999247e-03 6.509030000000000094e+00 3.713900000000000201e+00 2.620969999999999800e+00
3.131790000000000074e+00 1.858100000000000085e+00 1.295109999999999983e+00 4.738209999999999589e+00 2.766830000000000123e+00 3.903820000000000068e+00 4.713009999999999700e+00 4.677170000000000272e+00 1.306799999999999962e+00 6.310299999999999798e+00 5.575359999999999872e+00 3.910919999999999952e+00 6.277940000000000076e+00 1.868149999999999977e+00 1.288529999999999953e+00 7.871360000000000134e+00 2.765559999999999796e+00 3.903379999999999850e+00 7.833680000000000199e+00 4.682120000000000282e+00 1.297709999999999919e+00 9.433939999999999770e+00 5.568489999999999718e+00 3.915220000000000145e+00 6.255560000000000009e+00 2.749999999999999840e-03 1.940000000000000101e-03 4.741769999999999818e+00 6.528159999999999741e+00 2.600290000000000212e+00 7.819029999999999703e+00 2.804870000000000196e+00 1.018999999999999941e-02 3.165880000000000027e+00 3.724029999999999951e+00 2.597960000000000047e+00 3.128260000000000041e+00 3.769999999999999914e-03 2.759999999999999867e-03 4.721409999999999663e+00 9.038899999999999713e-01 2.594259999999999788e+00 7.881240000000000023e+00 4.623050000000000104e+00 5.198470000000000368e+00 6.287630000000000052e+00 3.714989999999999792e+00 2.602009999999999934e+00
3.126320000000000210e+00 1.800959999999999894e+00 1.290329999999999977e+00 4.702729999999999855e+00 2.715180000000000149e+00 3.853610000000000202e+00 4.645999999999999908e+00 4.454410000000000203e+00 1.292710000000000026e+00 6.214509999999999756e+00 5.382060000000000066e+00 3.849610000000000198e+00 6.283450000000000202e+00 1.806629999999999958e+00 1.286140000000000061e+00 7.865969999999999906e+00 2.704919999999999991e+00 3.853450000000000042e+00 7.804499999999999993e+00 4.471790000000000376e+00 1.284569999999999990e+00 9.394140000000000157e+00 5.376269999999999882e+00 3.852970000000000006e+00 3.190000000000000127e-03 3.229999999999999798e-03 2.300000000000000070e-04 1.091891999999999996e+01 6.255860000000000198e+00 2.561339999999999950e+00 1.098409000000000013e+01 4.518740000000000201e+00 5.127589999999999648e+00 3.088719999999999910e+00 3.588799999999999990e+00 2.567540000000000155e+00 3.160449999999999982e+00 6.109999999999999980e-03 2.530000000000000131e-03 7.765089999999999826e+00 6.252309999999999590e+00 2.574320000000000164e+00 4.691959999999999908e+00 2.674490000000000034e+00 2.739999999999999814e-03 6.267070000000000363e+00 3.584789999999999921e+00 2.570139999999999869e+00
3.222160000000000135e+00 1.814259999999999984e+00 1.284580000000000055e+00 4.835869999999999891e+00 2.688270000000000159e+00 3.850519999999999943e+00 4.823620000000000019e+00 4.581750000000000433e+00 1.277239999999999931e+00 6.440430000000000099e+00 5.468820000000000014e+00 3.857270000000000199e+00 6.461610000000000298e+00 1.813280000000000003e+00 1.285879999999999912e+00 8.082409999999999428e+00 2.711520000000000152e+00 3.839389999999999858e+00 8.037559999999999150e+00 4.578879999999999839e+00 1.279789999999999983e+00 9.674129999999999896e+00 5.457830000000000403e+00 3.849450000000000038e+00 3.184689999999999799e+00 5.519560000000000244e+00 1.051999999999999984e-02 8.084250000000000824e+00 8.797599999999999865e-01 2.563299999999999912e+00 1.129532999999999987e+01 4.516700000000000159e+00 5.131289999999999907e+00 3.223110000000000142e+00 3.637539999999999996e+00 2.566730000000000178e+00 6.480999999999999872e+00 1.756410000000000027e+00 5.130690000000000417e+00 8.053169999999999717e+00 6.392660000000000231e+00 2.567509999999999959e+00 8.076819999999999666e+00 4.517260000000000275e+00 5.129990000000000272e+00 6.452749999999999986e+00 3.633750000000000036e+00 2.570959999999999912e+00
3.155899999999999928e+00 1.881909999999999972e+00 1.276240000000000041e+00 4.762480000000000047e+00 2.853509999999999991e+00 3.839550000000000018e+00 4.711079999999999934e+00 4.636440000000000339e+00 1.283039999999999958e+00 6.291479999999999961e+00 5.616950000000000109e+00 3.829270000000000174e+00 6.338840000000000252e+00 1.873250000000000082e+00 1.281109999999999971e+00 7.933799999999999741e+00 2.845800000000000107e+00 3.828129999999999811e+00 7.867619999999999614e+00 4.651419999999999888e+00 1.268299999999999983e+00 9.475009999999999266e+00 5.606550000000000367e+00 3.826560000000000183e+00 9.543029999999999902e+00 1.941540000000000044e+00 5.106399999999999828e+00 4.674640000000000128e+00 6.507069999999999688e+00 2.551709999999999923e+00 1.556589999999999918e+00 2.776260000000000172e+00 1.160000000000000007e-03 3.138180000000000192e+00 3.732829999999999870e+00 2.564630000000000187e+00 9.438610000000000610e+00 7.475459999999999994e+00 5.096700000000000230e+00 7.858990000000000364e+00 6.512059999999999960e+00 2.556789999999999896e+00 4.713020000000000209e+00 2.775669999999999860e+00 1.110000000000000092e-03 6.312940000000000218e+00 3.741010000000000169e+00 2.552690000000000126e+00
3.144750000000000156e+00 1.823550000000000004e+00 1.265949999999999909e+00 4.663680000000000270e+00 2.698640000000000150e+00 3.816170000000000062e+00 4.765170000000000350e+00 4.617609999999999992e+00 1.273539999999999894e+00 6.288429999999999964e+00 5.473309999999999675e+00 3.813790000000000013e+00 6.250609999999999999e+00 1.833250000000000046e+00 1.276210000000000067e+00 7.778310000000000279e+00 2.702350000000000030e+00 3.828359999999999985e+00 7.882839999999999847e+00 4.626730000000000231e+00 1.266299999999999981e+00 9.418649999999999523e+00 5.500329999999999941e+00 3.834849999999999870e+00 1.254163999999999923e+01 7.314320000000000377e+00 5.089909999999999712e+00 7.761230000000000295e+00 8.683899999999999952e-01 2.548909999999999787e+00 7.854969999999999786e+00 2.799080000000000013e+00 3.840000000000000097e-03 9.384439999999999671e+00 3.658279999999999976e+00 2.548509999999999831e+00 6.368710000000000093e+00 5.575070000000000192e+00 6.850000000000000186e-03 4.643709999999999560e+00 8.724300000000000388e-01 2.539149999999999796e+00 4.744080000000000297e+00 2.778890000000000082e+00 1.277000000000000010e-02 6.270349999999999646e+00 3.661939999999999973e+00 2.542199999999999793e+00
1.721600126369172923e+00 9.939698939058506655e-01 7.028398405002678206e-01 3.443210395421366421e+00 1.987939879027824874e+00 3.514209680999851759e+00 3.443210362794365320e+00 3.975879757405405890e+00 7.028395949997664482e-01 5.164810631845766054e+00 4.969839742528172621e+00 3.514209435500459833e+00 5.164810126369155263e+00 9.939696209057775622e-01 7.028396075002257826e-01 6.886420395421349205e+00 1.987939606027751660e+00 3.514209447999809832e+00 6.886420362794347660e+00 3.975879484405332676e+00 7.028393619997245212e-01 8.608020631845748838e+00 4.969839469528099407e+00 3.514209202500417906e+00 6.886421010953979405e+00 7.951749697244644643e+00 5.622739189999951925e+00 5.164810741901786351e+00 6.957779712122669658e+00 2.811369349500367765e+00 5.164810774528787007e+00 4.969839833745089308e+00 5.622739435500453631e+00 3.443210505477386274e+00 3.975879848622322577e+00 2.811369594999759691e+00 1.032963101095396219e+01 7.951749424244571429e+00 5.622738956999910442e+00 8.608020741901766471e+00 6.957779439122596443e+00 2.811369116500325838e+00 8.608020774528769792e+00 4.969839560745016094e+00 5.622739202500411260e+00 6.886420505477368614e+00 3.975879575622249362e+00 2.811369361999717764e+00
1.757330000000000059e+00 9.720900000000000096e-01 7.247200000000000308e-01 3.558359999999999967e+00 1.905510000000000037e+00 3.618300000000000072e+00 3.455039999999999889e+00 3.887640000000000207e+00 7.247999999999999998e-01 5.279980000000000118e+00 4.820599999999999774e+00 3.614409999999999901e+00 5.295049999999999812e+00 9.660499999999999643e-01 7.234000000000000430e-01 7.102299999999999613e+00 1.911899999999999933e+00 3.615330000000000155e+00 6.994810000000000194e+00 3.880209999999999937e+00 7.354399999999999826e-01 8.813299999999999912e+00 4.813139999999999752e+00 3.618729999999999780e+00 7.031430000000000291e+00 7.720170000000000421e+00 5.784159999999999968e+00 1.228642999999999930e+01 6.767970000000000041e+00 2.897629999999999928e+00 8.777250000000000441e+00 2.916970000000000063e+00 7.179999999999999750e-03 1.056658999999999970e+01 3.857899999999999885e+00 2.894280000000000186e+00 6.952860000000000262e+00 5.825300000000000367e+00 5.780000000000000415e-03 5.343569999999999709e+00 9.553899999999999615e-01 2.882509999999999906e+00 8.858570000000000277e+00 4.809339999999999726e+00 5.784019999999999939e+00 7.050569999999999560e+00 3.853239999999999998e+00 2.890249999999999986e+00
1.743889999999999940e+00 1.029379999999999962e+00 7.230499999999999705e-01 3.470720000000000027e+00 2.081210000000000004e+00 3.596350000000000158e+00 3.518969999999999931e+00 4.102929999999999744e+00 7.175899999999999501e-01 5.232840000000000380e+00 5.160870000000000068e+00 3.585280000000000022e+00 5.272780000000000022e+00 1.043560000000000043e+00 7.025400000000000533e-01 6.978559999999999874e+00 2.098879999999999857e+00 3.573679999999999968e+00 7.038649999999999629e+00 4.102759999999999962e+00 7.175700000000000411e-01 8.753439999999999444e+00 5.170169999999999710e+00 3.583990000000000009e+00 1.045157000000000025e+01 2.124750000000000139e+00 5.731550000000000367e+00 1.227846000000000082e+01 7.188019999999999854e+00 2.858569999999999833e+00 5.194119999999999848e+00 5.176120000000000054e+00 5.728049999999999642e+00 3.478569999999999940e+00 4.123579999999999579e+00 2.861930000000000085e+00 6.946679999999999744e+00 2.117449999999999832e+00 5.733109999999999928e+00 5.231020000000000003e+00 1.062589999999999923e+00 2.864269999999999872e+00 8.714240000000000208e+00 5.186069999999999958e+00 5.734469999999999956e+00 7.002489999999999881e+00 4.127710000000000434e+00 2.870169999999999888e+00
1.725400000000000045e+00 9.834399999999999809e-01 7.155399999999999539e-01 3.476480000000000015e+00 1.988229999999999942e+00 3.592130000000000045e+00 3.464370000000000172e+00 3.911989999999999856e+00 7.163500000000000423e-01 5.224789999999999601e+00 4.908059999999999867e+00 3.588789999999999925e+00 5.134409999999999918e+00 9.854800000000000226e-01 7.189799999999999525e-01 6.892590000000000217e+00 1.987519999999999953e+00 3.582860000000000156e+00 6.865750000000000242e+00 3.917600000000000193e+00 7.289299999999999669e-01 8.619899999999999451e+00 4.911200000000000010e+00 3.576389999999999958e+00 3.517580000000000151e+00 2.011550000000000171e+00 5.726300000000000168e+00 1.204434999999999967e+01 6.858889999999999709e+00 2.864570000000000061e+00 1.736969999999999903e+00 2.917629999999999946e+00 6.700000000000000226e-03 3.506019999999999914e+00 3.929990000000000094e+00 2.858909999999999840e+00 6.921439999999999593e+00 2.009879999999999889e+00 5.728670000000000151e+00 5.167029999999999568e+00 1.008799999999999919e+00 2.857920000000000016e+00 5.154860000000000220e+00 2.932189999999999852e+00 4.279999999999999950e-03 6.890329999999999622e+00 3.932259999999999867e+00 2.871100000000000207e+00
1.692679999999999962e+00 1.016070000000000029e+00 6.965999999999999970e-01 3.372650000000000148e+00 2.072140000000000093e+00 3.520599999999999952e+00 3.335420000000000051e+00 4.065489999999999604e+00 7.058100000000000485e-01 5.035020000000000273e+00 5.119519999999999627e+00 3.527680000000000149e+00 5.067949999999999733e+00 1.035779999999999923e+00 7.031199999999999672e-01 6.771010000000000417e+00 2.080729999999999968e+00 3.511569999999999858e+00 6.716359999999999886e+00 4.058290000000000397e+00 7.109999999999999654e-01 8.430920000000000414e+00 5.111119999999999663e+00 3.511099999999999888e+00 3.393149999999999888e+00 2.104290000000000216e+00 5.627799999999999692e+00 4.985350000000000392e+00 7.133880000000000443e+00 2.812359999999999971e+00 5.047109999999999985e+00 5.150590000000000224e+00 5.622790000000000177e+00 1.012744999999999962e+01 4.093580000000000219e+00 2.823300000000000143e+00 6.695269999999999833e+00 6.073620000000000019e+00 5.590000000000000351e-03 8.397800000000000153e+00 7.133960000000000079e+00 2.819420000000000037e+00 8.448109999999999786e+00 5.150179999999999758e+00 5.624559999999999782e+00 6.735579999999999679e+00 4.096479999999999677e+00 2.814220000000000166e+00
1.695889999999999898e+00 1.003519999999999968e+00 7.240400000000000169e-01 3.381730000000000125e+00 2.055190000000000072e+00 3.624169999999999892e+00 3.413479999999999848e+00 3.994470000000000187e+00 7.237400000000000500e-01 5.090970000000000439e+00 5.045770000000000088e+00 3.622090000000000032e+00 5.190319999999999823e+00 1.009290000000000020e+00 7.237599999999999589e-01 6.864880000000000315e+00 2.045879999999999921e+00 3.622259999999999813e+00 6.891040000000000276e+00 4.005189999999999806e+00 7.170299999999999452e-01 8.564669999999999561e+00 5.049310000000000187e+00 3.616270000000000095e+00 3.329649999999999999e+00 2.087610000000000188e+00 5.782269999999999577e+00 8.622609999999999886e+00 1.057020000000000071e+00 2.897400000000000198e+00 1.199663999999999930e+01 5.093429999999999680e+00 5.788429999999999964e+00 1.031917999999999935e+01 4.045600000000000307e+00 2.905190000000000161e+00 6.810419999999999696e+00 2.087509999999999977e+00 5.784390000000000143e+00 8.556770000000000209e+00 7.015340000000000131e+00 2.882159999999999833e+00 8.516469999999999985e+00 5.075919999999999987e+00 5.783369999999999678e+00 6.851499999999999702e+00 4.035809999999999675e+00 2.894719999999999960e+00
1.759300000000000086e+00 9.760999999999999677e-01 6.993500000000000272e-01 3.545310000000000183e+00 1.899809999999999999e+00 3.507629999999999804e+00 3.560060000000000002e+00 3.960949999999999971e+00 6.901500000000000412e-01 5.348690000000000389e+00 4.883390000000000342e+00 3.510229999999999961e+00 5.215690000000000381e+00 9.843800000000000328e-01 7.093099999999999961e-01 6.980760000000000076e+00 1.890190000000000037e+00 3.507070000000000132e+00 7.014300000000000423e+00 3.950070000000000192e+00 7.038600000000000412e-01 8.792740000000000222e+00 4.885489999999999888e+00 3.503080000000000194e+00 6.892030000000000101e+00 3.469999999999999994e-03 4.930000000000000354e-03 5.390200000000000102e+00 6.867140000000000022e+00 2.792269999999999808e+00 1.226500000000000057e+01 4.841730000000000089e+00 5.599179999999999602e+00 3.608610000000000095e+00 3.915249999999999897e+00 2.802509999999999835e+00 7.034629999999999939e+00 1.862700000000000022e+00 5.603729999999999656e+00 8.844229999999999592e+00 6.873240000000000016e+00 2.798080000000000123e+00 5.257640000000000313e+00 2.969069999999999876e+00 1.298000000000000022e-02 7.040960000000000107e+00 3.904389999999999805e+00 2.800229999999999997e+00
1.707349999999999923e+00 9.909900000000000375e-01 6.910399999999999876e-01 3.414089999999999847e+00 2.028840000000000199e+00 3.453730000000000189e+00 3.485660000000000203e+00 4.033769999999999634e+00 7.013399999999999634e-01 5.190500000000000114e+00 5.048060000000000436e+00 3.446359999999999868e+00 5.076310000000000322e+00 1.003749999999999920e+00 6.932500000000000329e-01 6.790499999999999758e+00 2.011950000000000127e+00 3.461619999999999919e+00 6.871850000000000236e+00 4.029130000000000322e+00 6.927600000000000424e-01 8.553969999999999629e+00 5.053189999999999849e+00 3.453730000000000189e+00 3.549040000000000195e+00 6.042629999999999946e+00 7.190000000000000210e-03 8.440189999999999415e+00 1.020089999999999941e+00 2.765550000000000175e+00 5.172310000000000407e+00 5.055609999999999715e+00 5.523089999999999833e+00 1.022395000000000032e+01 4.038829999999999920e+00 2.764450000000000074e+00 1.033024999999999949e+01 8.070339999999999847e+00 5.518810000000000215e+00 8.617000000000000881e+00 7.053289999999999615e+00 2.762840000000000185e+00 8.553020000000000067e+00 5.064079999999999693e+00 5.507259999999999600e+00 6.840799999999999770e+00 4.031060000000000088e+00 2.772260000000000169e+00
1.725500000000000034e+00 9.943499999999999561e-01 6.985999999999999988e-01 3.457390000000000185e+00 1.949480000000000102e+00 3.484929999999999861e+00 3.433300000000000018e+00 4.048639999999999795e+00 6.948100000000000387e-01 5.153089999999999726e+00 4.999729999999999563e+00 3.482190000000000119e+00 5.210720000000000240e+00 1.007030000000000092e+00 7.027099999999999458e-01 6.954229999999999912e+00 1.939510000000000067e+00 3.489479999999999915e+00 6.912079999999999558e+00 4.054350000000000342e+00 7.066500000000000004e-01 8.635260000000000602e+00 5.004080000000000084e+00 3.482950000000000212e+00 8.410000000000000808e-03 1.068000000000000026e-02 1.170000000000000033e-03 5.113120000000000331e+00 7.043120000000000047e+00 2.782599999999999962e+00 1.211021000000000036e+01 4.938170000000000393e+00 5.574200000000000266e+00 3.423140000000000072e+00 3.995859999999999967e+00 2.783749999999999947e+00 6.874270000000000103e+00 6.092730000000000423e+00 6.610000000000000424e-03 5.233710000000000306e+00 9.503700000000000481e-01 2.784580000000000055e+00 8.636850000000000804e+00 4.951550000000000118e+00 5.576850000000000307e+00 6.912320000000000242e+00 3.995530000000000026e+00 2.784879999999999800e+00
1.727819999999999911e+00 1.023910000000000098e+00 7.044799999999999951e-01 3.414620000000000211e+00 2.029580000000000162e+00 3.445899999999999963e+00 3.516199999999999992e+00 4.054229999999999556e+00 6.777100000000000346e-01 5.213189999999999991e+00 5.051319999999999588e+00 3.452430000000000110e+00 5.184669999999999668e+00 1.010529999999999928e+00 6.890600000000000058e-01 6.859469999999999956e+00 2.026990000000000069e+00 3.448170000000000179e+00 6.976790000000000269e+00 4.050349999999999895e+00 6.919100000000000250e-01 8.663919999999999177e+00 5.066270000000000273e+00 3.454579999999999984e+00 1.024404000000000003e+01 2.036179999999999879e+00 5.520699999999999719e+00 5.286109999999999864e+00 7.097400000000000375e+00 2.773960000000000203e+00 5.146390000000000242e+00 5.064700000000000202e+00 5.510769999999999946e+00 3.480630000000000113e+00 4.051639999999999908e+00 2.761210000000000164e+00 6.798359999999999737e+00 2.035730000000000040e+00 5.521300000000000097e+00 8.724460000000000548e+00 7.090690000000000381e+00 2.764240000000000030e+00 8.594559999999999533e+00 5.070400000000000240e+00 5.522649999999999615e+00 6.926409999999999734e+00 4.065159999999999663e+00 2.747599999999999820e+00
1.668730000000000047e+00 1.019409999999999927e+00 7.177999999999999936e-01 3.385619999999999852e+00 2.045500000000000096e+00 3.575480000000000214e+00 3.341940000000000133e+00 4.004080000000000084e+00 7.181400000000000006e-01 5.055869999999999642e+00 5.029950000000000365e+00 3.577449999999999797e+00 5.045410000000000394e+00 1.002499999999999947e+00 7.049299999999999455e-01 6.748800000000000132e+00 2.047629999999999839e+00 3.576080000000000148e+00 6.692330000000000112e+00 3.998899999999999899e+00 7.134300000000000086e-01 8.408229999999999649e+00 5.033579999999999721e+00 3.577109999999999790e+00 6.745379999999999932e+00 8.051579999999999515e+00 5.715910000000000046e+00 1.717719999999999914e+00 1.037860000000000005e+00 2.853250000000000064e+00 8.363889999999999603e+00 2.984319999999999862e+00 7.769999999999999997e-03 1.007704000000000022e+01 4.026830000000000354e+00 2.858560000000000212e+00 6.759240000000000137e+00 2.066269999999999829e+00 5.709340000000000082e+00 5.066349999999999909e+00 1.038040000000000074e+00 2.866870000000000029e+00 8.426209999999999312e+00 5.063049999999999606e+00 5.713569999999999816e+00 6.724470000000000169e+00 4.024930000000000341e+00 2.857279999999999820e+00
1.668730000000000047e+00 1.019409999999999927e+00 7.177999999999999936e-01 3.385619999999999852e+00 2.045500000000000096e+00 3.575480000000000214e+00 3.341940000000000133e+00 4.004080000000000084e+00 7.181400000000000006e-01 5.055869999999999642e+00 5.029950000000000365e+00 3.577449999999999797e+00 5.045410000000000394e+00 1.002499999999999947e+00 7.049299999999999455e-01 6.748800000000000132e+00 2.047629999999999839e+00 3.576080000000000148e+00 6.692330000000000112e+00 3.998899999999999899e+00 7.134300000000000086e-01 8.408229999999999649e+00 5.033579999999999721e+00 3.577109999999999790e+00 6.745379999999999932e+00 8.051579999999999515e+00 5.715910000000000046e+00 1.717719999999999914e+00 1.037860000000000005e+00 2.853250000000000064e+00 8.363889999999999603e+00 2.984319999999999862e+00 7.769999999999999997e-03 1.007704000000000022e+01 4.026830000000000354e+00 2.858560000000000212e+00 6.759240000000000137e+00 2.066269999999999829e+00 5.709340000000000082e+00 5.066349999999999909e+00 1.038040000000000074e+00 2.866870000000000029e+00 8.426209999999999312e+00 5.063049999999999606e+00 5.713569999999999816e+00 6.724470000000000169e+00 4.024930000000000341e+00 2.857279999999999820e+00
