-1.472857301399999983e+02
-1.469092717000000050e+02
-1.468303159099999959e+02
-1.469850546199999997e+02
-1.471717378600000075e+02
-1.471452180699999985e+02
-1.471366205799999989e+02
-1.466995358899999928e+02
-1.471939000700000122e+02
-1.471106444399999873e+02
-1.468020157699999970e+02
-1.424163062899999943e+02
-1.422220853199999908e+02
-1.421315646600000093e+02
-1.422279937000000132e+02
-1.423649319099999957e+02
-1.422836423699999955e+02
-1.423020104299999957e+02
-1.421469728399999894e+02
-1.423229620600000089e+02
-1.423021690799999988e+02
-1.422673489500000130e+02
-1.422673489500000130e+02
