-1.999999860843925009e-06 7.000000028765911328e-06 -2.000000038475377595e-06 -1.999999883957984960e-06 6.000000016964292163e-06 -4.000000032574567794e-06 -3.000000079719920028e-06 -3.999999933247888744e-06 1.000000027848679526e-06 -2.000000056605860333e-06 -2.999999941730035854e-06 3.000000020532722886e-06 2.000000120287453681e-06 5.999999953531654928e-06 -1.000000038235153168e-06 1.000000097173394198e-06 4.999999962013802461e-06 -3.000000030919196739e-06 3.999999779708857280e-06 -1.100000006933344454e-05 2.000000059248324879e-06 9.999998999963122458e-07 -5.000000014382956125e-06 1.000000028088903787e-06 -5.900000019198819399e-05 -1.399999841970510250e-05 6.500000016610497130e-05 2.999999596683241220e-06 -2.099999996643833085e-05 1.600000011967157200e-05 -9.999998793351733118e-06 5.600000049787815930e-05 4.999999968370610242e-05 -7.199999911034454640e-05 4.700000119489473920e-05 -4.500000017544753640e-05 6.199999896128244239e-05 -5.400000102156112957e-05 4.000000023090466769e-05 1.399999823531228607e-05 -8.400000053770754203e-05 -4.299999952414400696e-05 1.500000079908606659e-05 4.099999956002485675e-05 -2.300000026316040752e-05 4.900000052926478146e-05 2.999999867565005912e-05 -5.600000024636647754e-05
1.037550000000000000e-01 6.418600000000000694e-02 1.304740000000000066e-01 8.840399999999999647e-02 -2.160600000000000021e-02 -1.331920000000000048e-01 1.890529999999999988e-01 -1.265820000000000001e-01 -1.205780000000000046e-01 7.857500000000000595e-02 -5.856499999999999900e-02 -1.706399999999999931e-02 8.325000000000000802e-03 1.265259999999999996e-01 3.277900000000000258e-02 -1.293090000000000073e-01 9.032999999999999363e-02 -7.130000000000000226e-02 -1.223380000000000023e-01 -1.556009999999999893e-01 2.146450000000000025e-01 -1.104289999999999994e-01 3.552299999999999902e-02 5.183499999999999913e-02 1.394730000000000136e-01 4.624999999999999944e-02 1.385530000000000095e-01 -1.715740000000000043e-01 -3.220799999999999774e-01 -1.388830000000000064e-01 -2.110180000000000111e-01 -3.837200000000000333e-02 -5.793999999999999671e-03 1.933219999999999938e-01 2.129350000000000132e-01 4.106900000000000134e-02 -1.472650000000000070e-01 -9.024100000000000177e-02 6.806199999999999750e-02 1.774229999999999974e-01 2.627499999999999974e-02 -8.998000000000000789e-03 1.586660000000000015e-01 1.479409999999999892e-01 -7.451000000000000158e-03 -2.450620000000000021e-01 6.308300000000000018e-02 -1.741560000000000052e-01
-4.228699999999999820e-02 -1.036600000000000021e-01 5.855500000000000288e-02 4.621399999999999814e-02 -1.119460000000000038e-01 -1.252189999999999970e-01 -3.265000000000000107e-03 -4.592000000000000248e-02 1.062329999999999941e-01 -1.131370000000000015e-01 7.503000000000000121e-03 1.069499999999999965e-02 1.436840000000000062e-01 -8.514900000000000246e-02 -6.212999999999999773e-03 3.805999999999999661e-02 -1.227940000000000004e-01 -3.391600000000000170e-02 -1.588600000000000081e-02 4.039600000000000135e-02 4.633999999999999925e-02 -8.352900000000000602e-02 -1.046360000000000068e-01 -1.836470000000000047e-01 -8.773599999999999455e-02 9.114999999999999492e-02 -7.054999999999999639e-03 1.321080000000000032e-01 2.609150000000000080e-01 5.230900000000000133e-02 -1.270290000000000030e-01 3.425700000000000273e-02 7.585999999999999688e-02 -8.470400000000000151e-02 -1.293219999999999925e-01 5.304500000000000187e-02 8.217399999999999705e-02 4.391599999999999671e-02 1.432819999999999927e-01 -1.209630000000000011e-01 2.066999999999999948e-01 -1.957099999999999951e-01 1.845050000000000023e-01 -1.390899999999999949e-02 2.299680000000000057e-01 5.179099999999999676e-02 3.249900000000000011e-02 -2.245280000000000054e-01
1.149010000000000031e-01 8.599299999999999999e-02 1.969600000000000170e-02 -1.913099999999999870e-02 -1.696749999999999925e-01 8.902300000000000491e-02 -1.660429999999999962e-01 3.849199999999999844e-02 -8.500499999999999723e-02 1.018349999999999950e-01 7.596500000000000474e-02 2.363200000000000023e-02 8.189000000000000098e-03 -1.083950000000000052e-01 5.454200000000000020e-02 3.214199999999999696e-02 -2.020699999999999927e-02 -1.914300000000000029e-02 9.506799999999999973e-02 7.811000000000000235e-03 -4.524000000000000243e-03 -1.297740000000000005e-01 1.014769999999999978e-01 -7.246400000000000063e-02 -1.086320000000000063e-01 -7.503200000000000147e-02 3.511299999999999838e-02 1.166419999999999957e-01 -2.257699999999999985e-02 -3.924099999999999810e-02 8.758799999999999919e-02 1.086590000000000056e-01 7.402200000000000446e-02 -3.168100000000000083e-02 -6.693599999999999550e-02 -3.334499999999999964e-02 1.566899999999999959e-01 -6.450999999999999790e-02 1.635989999999999944e-01 -1.701610000000000067e-01 -6.230000000000000294e-03 2.631700000000000012e-02 -1.157949999999999952e-01 -7.959700000000000109e-02 -1.292329999999999868e-01 2.816099999999999853e-02 1.947619999999999907e-01 -1.029899999999999982e-01
-1.127599999999999957e-02 5.133800000000000169e-02 -3.308799999999999936e-02 7.006099999999999828e-02 -2.165200000000000111e-02 -3.402399999999999869e-02 -9.646699999999999720e-02 -2.496699999999999961e-02 1.615389999999999882e-01 -2.790400000000000172e-02 -2.415300000000000086e-02 5.832000000000000378e-03 5.047200000000000297e-02 1.312000000000000015e-03 -2.496699999999999961e-02 5.446000000000000320e-03 6.615799999999999459e-02 -1.009749999999999953e-01 1.176800000000000068e-02 -2.454800000000000038e-02 5.168299999999999977e-02 -3.262500000000000122e-02 -2.002699999999999966e-02 -4.554899999999999921e-02 -3.232299999999999757e-02 -7.331300000000000316e-02 6.200200000000000156e-02 5.770299999999999735e-02 -2.152000000000000093e-02 -7.816900000000000237e-02 -4.463299999999999906e-02 8.971200000000000008e-02 2.663499999999999895e-02 -4.555100000000000121e-02 5.236099999999999782e-02 -1.621099999999999972e-02 9.536100000000000132e-02 -1.784280000000000033e-01 2.307849999999999902e-01 -9.611699999999999411e-02 -2.004620000000000013e-01 4.240399999999999725e-02 9.682599999999999540e-02 1.511599999999999888e-01 -1.112609999999999988e-01 -7.420000000000000380e-04 1.770279999999999909e-01 -1.366360000000000074e-01
8.540000000000000716e-03 1.162920000000000065e-01 -5.875899999999999873e-02 6.977800000000000669e-02 1.943280000000000007e-01 2.214299999999999949e-02 -1.164629999999999971e-01 -1.548440000000000094e-01 8.444599999999999329e-02 -1.306730000000000114e-01 -2.052499999999999880e-01 2.729099999999999929e-02 -6.309000000000000372e-03 7.471099999999999963e-02 -5.559800000000000159e-02 -1.259500000000000029e-02 -1.827499999999999958e-02 3.982200000000000323e-02 8.737999999999999240e-03 -8.816999999999999837e-02 6.975000000000000297e-03 5.418099999999999999e-02 -3.887999999999999790e-02 8.503999999999999407e-03 1.426270000000000038e-01 -1.526899999999999959e-02 -1.033199999999999917e-02 1.964899999999999980e-02 -9.646999999999999326e-03 -1.647990000000000010e-01 7.340000000000000691e-02 -3.582500000000000268e-02 1.893799999999999997e-02 4.276200000000000140e-02 -2.592099999999999960e-02 1.666700000000000126e-02 -1.300459999999999949e-01 1.382349999999999968e-01 5.605899999999999772e-02 6.679400000000000615e-02 1.371699999999999864e-01 -7.426999999999999574e-03 -2.351100000000000065e-02 6.956800000000000483e-02 -7.262899999999999912e-02 -6.686999999999999889e-02 -1.382240000000000135e-01 8.869699999999999807e-02
1.258330000000000004e-01 -3.197599999999999748e-02 9.967199999999999671e-02 4.036999999999999790e-03 -5.343699999999999839e-02 -6.376900000000000623e-02 -3.192600000000000299e-02 -9.619999999999999645e-04 -1.251099999999999955e-02 1.721000000000000090e-03 8.728500000000000147e-02 -1.051710000000000006e-01 -8.254599999999999438e-02 -1.336289999999999978e-01 1.878440000000000110e-01 -5.908599999999999963e-02 -3.581899999999999668e-02 1.423499999999999939e-02 1.102370000000000017e-01 -8.328999999999999598e-03 4.121199999999999863e-02 -1.334199999999999969e-02 1.292230000000000045e-01 -1.756939999999999891e-01 -4.830000000000000092e-03 -7.678000000000000103e-02 -1.081050000000000066e-01 -1.187239999999999962e-01 3.674800000000000288e-02 1.352299999999999891e-01 4.202499999999999986e-02 1.357250000000000123e-01 -1.699380000000000057e-01 -6.050900000000000029e-02 -1.496100000000000034e-02 1.017020000000000007e-01 4.009999999999999893e-04 -1.185739999999999988e-01 -1.206829999999999986e-01 2.216900000000000120e-02 -2.404299999999999840e-02 1.727879999999999971e-01 2.944199999999999942e-02 6.863299999999999956e-02 -4.028099999999999736e-02 3.509799999999999726e-02 4.089799999999999686e-02 4.346900000000000069e-02
1.224399999999999968e-02 -1.130730000000000068e-01 -7.091400000000000481e-02 1.237800000000000011e-02 -9.320900000000000019e-02 6.389400000000000635e-02 -7.306899999999999507e-02 1.811159999999999992e-01 -1.325510000000000022e-01 5.237900000000000195e-02 6.402499999999999858e-02 3.981900000000000023e-02 1.175059999999999993e-01 -1.741000000000000048e-01 -2.497200000000000114e-02 1.591400000000000106e-02 4.749799999999999855e-02 -4.942000000000000212e-03 3.857900000000000218e-02 -4.102999999999999876e-03 3.842299999999999882e-02 -1.943600000000000050e-01 9.609800000000000286e-02 -1.005799999999999923e-02 -3.053300000000000111e-02 -5.316300000000000192e-02 -5.389300000000000340e-02 2.626319999999999766e-01 1.082749999999999962e-01 3.901199999999999807e-02 2.283010000000000039e-01 -1.745710000000000039e-01 7.381400000000000461e-02 7.761099999999999943e-02 -1.607049999999999867e-01 -5.968899999999999900e-02 5.544799999999999729e-02 9.300600000000000533e-02 4.798199999999999688e-02 -1.029290000000000066e-01 2.032990000000000075e-01 -1.026579999999999993e-01 -2.598809999999999731e-01 -6.992400000000000004e-02 1.119720000000000021e-01 -2.122189999999999910e-01 4.953099999999999864e-02 4.476100000000000217e-02
4.753299999999999886e-02 4.482799999999999979e-02 -5.441399999999999709e-02 1.732730000000000103e-01 1.060620000000000035e-01 -4.283499999999999808e-02 -1.169710000000000055e-01 7.367000000000000284e-03 6.126500000000000001e-02 1.311099999999999939e-02 -1.741929999999999867e-01 -3.802599999999999730e-02 -7.174200000000000021e-02 4.132700000000000262e-02 4.663699999999999790e-02 -4.476999999999999730e-02 -8.821600000000000275e-02 6.294500000000000095e-02 3.020899999999999974e-02 1.197999999999999933e-02 2.966999999999999846e-02 5.034000000000000280e-03 -4.227999999999999987e-03 -3.257600000000000079e-02 -9.423499999999999932e-02 -7.104299999999999504e-02 -2.194159999999999999e-01 2.374370000000000092e-01 1.383999999999999987e-02 7.197299999999999531e-02 1.945199999999999985e-01 6.316900000000000293e-02 8.056999999999999926e-03 -6.061099999999999821e-02 -1.530410000000000104e-01 -1.112100000000000068e-02 1.125580000000000053e-01 3.988900000000000085e-02 1.287210000000000021e-01 -3.125439999999999885e-01 6.585699999999999887e-02 -1.968400000000000011e-02 -1.119700000000000001e-01 -4.204299999999999704e-02 2.632599999999999871e-02 -8.310000000000000329e-04 1.384450000000000125e-01 -1.752300000000000038e-02
2.065600000000000075e-02 -7.451299999999999590e-02 3.170100000000000001e-02 -1.326289999999999969e-01 -1.490980000000000083e-01 -6.891400000000000303e-02 -1.287820000000000076e-01 6.539000000000000368e-02 -9.617900000000000060e-02 7.023799999999999488e-02 2.722099999999999867e-02 4.678000000000000214e-02 -4.273699999999999721e-02 -4.990499999999999797e-02 -7.365000000000000019e-03 6.714999999999999615e-03 -5.881399999999999822e-02 3.906500000000000250e-02 1.447420000000000095e-01 -3.300499999999999962e-02 8.981000000000000094e-02 -8.622699999999999809e-02 1.061249999999999971e-01 8.378000000000000030e-03 -7.771999999999999742e-02 5.784000000000000252e-02 7.937900000000000511e-02 4.889600000000000196e-02 8.878900000000000681e-02 -3.580799999999999955e-02 -1.849999999999999978e-01 -4.322399999999999853e-02 7.257700000000000262e-02 -4.407200000000000006e-02 1.072570000000000051e-01 -1.023759999999999948e-01 2.148599999999999954e-01 1.001750000000000002e-01 1.628390000000000115e-01 -2.419400000000000023e-02 -3.514300000000000063e-02 -1.787960000000000105e-01 1.293050000000000033e-01 -1.197840000000000016e-01 3.391999999999999876e-02 8.594799999999999662e-02 1.068999999999999985e-02 -7.501199999999999535e-02
-1.176880000000000009e-01 1.122930000000000039e-01 1.503599999999999937e-01 -4.192799999999999999e-02 -3.286300000000000332e-02 3.450999999999999901e-02 -6.982900000000000218e-02 6.453599999999999615e-02 -5.910999999999999588e-03 8.093699999999999506e-02 1.896609999999999963e-01 8.183899999999999508e-02 3.535699999999999954e-02 -9.429800000000000681e-02 -2.430300000000000168e-02 9.661999999999999755e-02 -6.825900000000000023e-02 -1.264919999999999933e-01 2.922500000000000098e-02 -7.416100000000000469e-02 1.027549999999999991e-01 -9.026700000000000002e-02 -1.363199999999999967e-01 -1.859429999999999972e-01 1.629520000000000135e-01 -6.361000000000000335e-03 2.534600000000000047e-02 -6.691400000000000126e-02 -5.167900000000000271e-02 7.609999999999999577e-03 7.278500000000000247e-02 -1.445319999999999938e-01 -1.549290000000000112e-01 8.090700000000000669e-02 5.223900000000000071e-02 7.391200000000000547e-02 -1.011200000000000015e-01 1.058700000000000058e-01 -1.819369999999999876e-01 5.342700000000000227e-02 -5.474799999999999806e-02 2.214830000000000132e-01 -1.093569999999999959e-01 1.559969999999999968e-01 -2.367009999999999947e-01 -1.510599999999999964e-02 -1.737400000000000055e-02 2.184000000000000108e-01
-3.000000531771332333e-06 -4.999999848662288143e-06 -1.999999580687164452e-06 -7.928649806230850835e-14 -9.999999999999959313e-07 4.326091063230410987e-14 1.999999864661132348e-06 -2.450948125135629752e-13 -2.000000135338844177e-06 -1.000000452484844524e-06 -4.000000007235293421e-06 -1.999999759286925623e-06 1.999999638418707523e-06 -2.000000288355709899e-06 -3.000000048817019855e-06 -1.000000226242419698e-06 -1.999999963974396514e-06 -9.999998458087501563e-07 -2.000000293911843269e-06 -1.999999927948800318e-06 -1.999999778139321413e-06 -2.378594941869255629e-13 -2.999999999999988218e-06 1.297827318969123296e-13 3.499999252441571773e-05 -6.100000446220259914e-05 -3.899999972951421031e-05 2.300000453849843586e-05 4.699999869554115052e-05 1.199999641034037912e-05 3.500000471217356007e-05 2.699999886888675325e-05 3.799999646352540856e-05 -3.400000463492005166e-05 -3.199999864534690096e-05 -3.099999631489030240e-05 -4.200000350574086808e-05 -2.799999749192404847e-05 -1.899999594657857739e-05 -2.099999541009580427e-05 -9.999953499810116665e-07 6.900000146431861257e-05 -3.199999584776884090e-05 7.200000154216692225e-05 -2.300000094936388193e-05 3.900000003281801978e-05 -3.000002919129905814e-06 3.999997490675131665e-06
9.902600000000000291e-02 -3.332499999999999907e-01 1.557080000000000131e-01 1.467400000000000093e-01 -2.161099999999999965e-01 1.253199999999999870e-01 1.615969999999999906e-01 -3.234299999999999953e-01 1.674090000000000023e-01 -5.635099999999999831e-02 -2.686310000000000087e-01 2.219160000000000021e-01 1.281999999999999980e-02 -1.960220000000000018e-01 1.533760000000000123e-01 -7.668000000000000337e-03 -3.237959999999999727e-01 2.337170000000000081e-01 4.850499999999999950e-02 -2.449520000000000031e-01 2.859599999999999989e-02 -3.304200000000000192e-02 9.367999999999999591e-03 1.419289999999999996e-01 2.977799999999999891e-02 3.352769999999999917e-01 -1.630260000000000042e-01 -4.583500000000000074e-02 2.148249999999999882e-01 -2.332650000000000001e-01 -1.492559999999999998e-01 1.825769999999999893e-01 -2.939599999999999991e-01 1.870330000000000048e-01 2.282679999999999987e-01 -1.463450000000000029e-01 -1.826550000000000118e-01 2.823080000000000034e-01 -2.213549999999999962e-01 -7.649200000000000443e-02 4.387499999999999734e-02 2.506600000000000147e-02 -5.501999999999999946e-02 2.766819999999999835e-01 -1.217300000000000049e-01 -7.918000000000000038e-02 3.330099999999999727e-01 -7.335500000000000353e-02
6.500000000000000222e-02 -2.386800000000000033e-02 -1.251710000000000045e-01 -9.715400000000000424e-02 5.376899999999999735e-02 -1.910030000000000061e-01 -6.105399999999999716e-02 -2.628499999999999934e-02 -4.641200000000000186e-02 -2.597299999999999956e-02 -6.207599999999999923e-02 -6.986100000000000643e-02 -1.149130000000000013e-01 -8.421599999999999919e-02 5.553600000000000203e-02 6.316199999999999593e-02 -9.310400000000000620e-02 8.030400000000000038e-02 5.148799999999999905e-02 2.682500000000000162e-02 -6.573600000000000276e-02 4.497400000000000009e-02 -6.715500000000000635e-02 -6.361300000000000288e-02 1.352690000000000003e-01 -1.597059999999999869e-01 7.477000000000000313e-02 6.993099999999999317e-02 1.219169999999999976e-01 1.554780000000000051e-01 -6.458000000000000199e-03 1.381660000000000110e-01 1.494649999999999868e-01 -2.052500000000000158e-02 1.730699999999999947e-02 6.871900000000000230e-02 -4.891199999999999715e-02 -3.447399999999999770e-02 1.431100000000000080e-02 -3.251699999999999730e-02 -2.258399999999999991e-02 2.656299999999999981e-02 -7.110000000000000001e-03 1.431149999999999922e-01 6.560000000000000076e-04 -1.520700000000000003e-02 7.237000000000000377e-02 -6.400599999999999346e-02
-1.312639999999999918e-01 -1.528609999999999969e-01 3.302350000000000008e-01 -5.684000000000000163e-02 -1.090789999999999954e-01 1.078530000000000044e-01 -1.226479999999999931e-01 -1.578269999999999951e-01 2.581879999999999731e-01 -2.903859999999999775e-01 3.372499999999999803e-02 2.979169999999999874e-01 -1.508660000000000001e-01 -8.691400000000000514e-02 2.346350000000000102e-01 -1.845150000000000123e-01 -1.751159999999999939e-01 2.705500000000000127e-01 -5.878200000000000092e-02 -1.699110000000000065e-01 1.779030000000000056e-01 1.814899999999999847e-02 -2.892399999999999832e-02 2.819099999999999939e-01 7.723099999999999410e-02 5.923099999999999893e-02 -2.148500000000000132e-01 1.689829999999999943e-01 6.904499999999999527e-02 -2.060150000000000037e-01 1.434620000000000062e-01 3.315640000000000254e-01 -2.768349999999999977e-01 -1.075389999999999957e-01 1.411650000000000127e-01 -1.663570000000000049e-01 2.227739999999999998e-01 1.200729999999999992e-01 -2.479840000000000100e-01 7.059100000000000097e-02 -2.519199999999999912e-02 -1.369039999999999979e-01 3.812999999999999983e-03 5.941899999999999959e-02 -4.039400000000000213e-01 3.978380000000000249e-01 9.160100000000000187e-02 -3.063080000000000247e-01
3.092299999999999910e-02 1.780259999999999898e-01 1.288000000000000082e-02 1.787860000000000005e-01 1.183680000000000010e-01 -1.654200000000000115e-02 5.228499999999999814e-02 1.654090000000000005e-01 -1.017400000000000075e-02 -5.832400000000000084e-02 1.371840000000000004e-01 -1.148689999999999989e-01 2.985240000000000116e-01 5.344999999999999925e-03 2.859799999999999842e-02 2.366459999999999952e-01 7.952099999999999447e-02 8.344999999999999640e-02 3.159770000000000079e-01 1.786230000000000040e-01 -8.345600000000000240e-02 3.118100000000000038e-02 2.170529999999999959e-01 1.993899999999999839e-02 -8.914500000000000202e-02 -9.563599999999999879e-02 6.666800000000000503e-02 -7.631000000000000283e-02 -1.073749999999999982e-01 -2.776899999999999855e-02 -1.109389999999999959e-01 -2.256050000000000000e-01 2.023330000000000128e-01 1.463679999999999981e-01 -1.939919999999999978e-01 -1.144909999999999956e-01 -2.144060000000000132e-01 -7.290999999999999738e-03 -8.007799999999999641e-02 -3.774520000000000097e-01 -8.448899999999999466e-02 -8.995899999999999730e-02 -3.227960000000000274e-01 -1.948699999999999877e-01 6.365800000000000625e-02 -4.131800000000000056e-02 -1.702690000000000037e-01 5.981199999999999711e-02
2.962949999999999751e-01 3.979599999999999804e-02 1.181790000000000063e-01 1.276229999999999865e-01 -4.174499999999999739e-02 3.273999999999999827e-02 2.278429999999999900e-01 -3.198000000000000148e-02 1.989609999999999990e-01 1.007979999999999987e-01 -4.866100000000000286e-02 9.703299999999999426e-02 9.393300000000000261e-02 -1.043010000000000048e-01 9.249400000000000677e-02 -1.545900000000000052e-02 -5.376999999999999835e-03 5.162499999999999728e-02 1.603980000000000128e-01 -1.179160000000000069e-01 2.129820000000000046e-01 4.213900000000000284e-02 -1.608559999999999990e-01 1.420500000000000096e-01 -1.020380000000000037e-01 6.266599999999999948e-02 -3.097199999999999953e-02 -1.320129999999999915e-01 -1.005619999999999986e-01 -2.197429999999999939e-01 -2.311229999999999951e-01 -1.538259999999999905e-01 -1.217290000000000039e-01 9.589300000000000601e-02 -2.486700000000000021e-02 -2.667570000000000219e-01 -2.782439999999999913e-01 1.457549999999999957e-01 -9.732899999999999885e-02 -1.111799999999999941e-02 3.333059999999999912e-01 -8.460000000000000506e-03 -1.785700000000000065e-01 1.747039999999999982e-01 -3.466000000000000331e-02 -1.963590000000000058e-01 3.386600000000000027e-02 -1.664150000000000074e-01
-1.324490000000000112e-01 1.237779999999999991e-01 -6.812799999999999412e-02 -2.868350000000000066e-01 2.196919999999999984e-01 -1.204979999999999940e-01 -1.414439999999999864e-01 -4.567800000000000332e-02 1.606100000000000028e-01 -1.284450000000000036e-01 2.470400000000000026e-02 -1.464610000000000078e-01 -3.390909999999999758e-01 4.974200000000000149e-02 -1.099099999999999938e-01 -6.485799999999999899e-02 2.691500000000000004e-01 -5.410899999999999738e-02 -2.924359999999999737e-01 1.817950000000000121e-01 2.848399999999999890e-02 -1.035240000000000049e-01 -1.022539999999999977e-01 4.638300000000000062e-02 3.195790000000000020e-01 -9.975199999999999345e-02 -1.711399999999999866e-01 3.564229999999999898e-01 1.326990000000000114e-01 1.377980000000000038e-01 4.249749999999999917e-01 -2.389179999999999915e-01 1.443830000000000113e-01 -1.140999999999999931e-01 -3.112570000000000059e-01 -1.124700000000000005e-02 5.314599999999999880e-02 -8.949899999999999523e-02 2.823900000000000021e-02 1.145309999999999939e-01 -4.214699999999999697e-02 2.035859999999999892e-01 9.540899999999999381e-02 9.887799999999999367e-02 -2.138160000000000061e-01 2.391179999999999972e-01 -1.709330000000000016e-01 1.458270000000000122e-01
-1.010510000000000019e-01 4.239850000000000008e-01 -1.322450000000000014e-01 -2.882199999999999762e-01 1.872240000000000015e-01 -1.277179999999999982e-01 -1.464870000000000061e-01 1.258620000000000017e-01 -2.722879999999999745e-01 -3.261180000000000190e-01 1.999299999999999966e-01 -2.034700000000000050e-02 4.846899999999999820e-02 3.506630000000000025e-01 -2.253040000000000043e-01 -3.014120000000000132e-01 3.279159999999999853e-01 -2.765889999999999738e-01 -2.043810000000000071e-01 1.098120000000000068e-01 -1.222550000000000026e-01 -1.546430000000000027e-01 8.655599999999999405e-02 -2.329559999999999964e-01 -3.518999999999999993e-03 -1.874210000000000043e-01 6.178499999999999964e-02 5.231059999999999599e-01 -2.900840000000000085e-01 4.466599999999999737e-02 2.044580000000000009e-01 -3.146510000000000140e-01 1.963390000000000135e-01 2.338550000000000073e-01 -2.212330000000000130e-01 1.733449999999999991e-01 8.921000000000000110e-03 -1.945209999999999995e-01 3.623680000000000234e-01 1.229279999999999956e-01 -7.096800000000000330e-02 8.485399999999999887e-02 9.768200000000000494e-02 -3.309440000000000159e-01 5.227540000000000520e-01 2.864110000000000267e-01 -2.021239999999999981e-01 -3.640999999999999792e-02
1.376310000000000033e-01 1.730029999999999901e-01 -2.569440000000000057e-01 1.337119999999999975e-01 1.135509999999999992e-01 -1.865390000000000104e-01 -1.233220000000000011e-01 1.018099999999999977e-01 -2.297680000000000000e-01 3.922500000000000292e-02 3.213499999999999690e-02 -1.372980000000000034e-01 1.178130000000000011e-01 8.418699999999999795e-02 -2.678099999999999925e-01 4.112199999999999883e-02 2.134870000000000101e-01 -1.527519999999999989e-01 2.569300000000000056e-02 2.989100000000000090e-02 -2.987730000000000108e-01 1.015080000000000010e-01 7.099600000000000355e-02 -1.765919999999999990e-01 -2.325959999999999972e-01 -3.368249999999999855e-01 6.699900000000000300e-02 1.070090000000000069e-01 -9.679300000000000403e-02 3.410500000000000198e-01 1.912639999999999896e-01 6.602099999999999635e-02 1.865920000000000079e-01 -5.528600000000000181e-02 -1.238829999999999931e-01 1.886450000000000071e-01 -2.987400000000000125e-02 -4.371699999999999892e-02 1.325159999999999949e-01 -3.305469999999999797e-01 -1.144799999999999984e-01 2.973299999999999832e-01 -4.835899999999999921e-02 -8.962599999999999734e-02 1.554810000000000081e-01 -7.499200000000000310e-02 -7.975699999999999457e-02 3.378619999999999957e-01
-3.165999999999999977e-03 -5.145600000000000174e-02 -3.434289999999999843e-01 -2.274899999999999839e-02 1.255199999999999927e-01 -1.535489999999999911e-01 4.953500000000000264e-02 7.662399999999999767e-02 -1.705689999999999984e-01 -8.077499999999999958e-02 2.345579999999999887e-01 -3.711499999999999799e-01 -1.671600000000000030e-01 1.180419999999999942e-01 -2.459490000000000010e-01 -5.655199999999999810e-02 1.665379999999999916e-01 -1.803329999999999933e-01 -1.120280000000000026e-01 1.640729999999999966e-01 -4.221579999999999777e-01 -8.606900000000000661e-02 1.113650000000000057e-01 -2.638320000000000110e-01 1.478450000000000042e-01 -1.124440000000000023e-01 3.256850000000000023e-01 -8.892600000000000504e-02 -1.925719999999999932e-01 1.147770000000000040e-01 7.557300000000000129e-02 -3.238599999999999812e-02 4.644789999999999752e-01 2.399000000000000091e-03 -7.778100000000000291e-02 8.260199999999999487e-02 3.444400000000000239e-02 -7.064099999999999546e-02 2.760210000000000163e-01 1.461240000000000039e-01 -9.231899999999999828e-02 1.736590000000000078e-01 4.716000000000000053e-02 -6.770600000000000229e-02 2.792930000000000135e-01 1.143440000000000012e-01 -2.994160000000000155e-01 4.344520000000000048e-01
1.117520000000000041e-01 -5.872299999999999742e-02 2.170850000000000002e-01 1.006829999999999947e-01 6.314300000000000468e-02 1.592959999999999932e-01 -7.246700000000000363e-02 4.893600000000000033e-02 2.216140000000000054e-01 -3.259900000000000297e-02 1.847109999999999863e-01 1.909629999999999939e-01 -3.141639999999999988e-01 1.397919999999999996e-01 3.402359999999999829e-01 -7.316499999999999393e-02 3.267899999999999971e-02 1.940020000000000078e-01 -9.860599999999999921e-02 1.612599999999999867e-01 1.997950000000000004e-01 -8.153000000000000524e-02 2.013220000000000010e-01 1.660439999999999972e-01 -3.470000000000000168e-02 -1.005719999999999947e-01 -2.075460000000000083e-01 -8.244700000000000639e-02 -2.310369999999999924e-01 -9.509700000000000097e-02 1.479600000000000012e-02 1.028690000000000021e-01 -3.529990000000000072e-01 6.655600000000000405e-02 -6.628499999999999670e-02 -1.959100000000000008e-01 2.791429999999999745e-01 -5.685300000000000076e-02 -4.866100000000000286e-02 2.357000000000000154e-03 -1.797509999999999941e-01 -4.083309999999999995e-01 1.687790000000000123e-01 -2.108839999999999881e-01 -1.474090000000000122e-01 4.561099999999999877e-02 -3.060500000000000026e-02 -2.330840000000000134e-01
1.117520000000000041e-01 -5.872299999999999742e-02 2.170850000000000002e-01 1.006829999999999947e-01 6.314300000000000468e-02 1.592959999999999932e-01 -7.246700000000000363e-02 4.893600000000000033e-02 2.216140000000000054e-01 -3.259900000000000297e-02 1.847109999999999863e-01 1.909629999999999939e-01 -3.141639999999999988e-01 1.397919999999999996e-01 3.402359999999999829e-01 -7.316499999999999393e-02 3.267899999999999971e-02 1.940020000000000078e-01 -9.860599999999999921e-02 1.612599999999999867e-01 1.997950000000000004e-01 -8.153000000000000524e-02 2.013220000000000010e-01 1.660439999999999972e-01 -3.470000000000000168e-02 -1.005719999999999947e-01 -2.075460000000000083e-01 -8.244700000000000639e-02 -2.310369999999999924e-01 -9.509700000000000097e-02 1.479600000000000012e-02 1.028690000000000021e-01 -3.529990000000000072e-01 6.655600000000000405e-02 -6.628499999999999670e-02 -1.959100000000000008e-01 2.791429999999999745e-01 -5.685300000000000076e-02 -4.866100000000000286e-02 2.357000000000000154e-03 -1.797509999999999941e-01 -4.083309999999999995e-01 1.687790000000000123e-01 -2.108839999999999881e-01 -1.474090000000000122e-01 4.561099999999999877e-02 -3.060500000000000026e-02 -2.330840000000000134e-01
