9.730526636100856663e+00 -8.758861691579186481e-22 0.000000000000000000e+00 -4.865341175369199966e+00 8.426838301232859152e+00 0.000000000000000000e+00 4.552990979504966584e-15 -9.999999999896352824e-10 1.253193680500000085e+01
9.496882119000000344e+00 0.000000000000000000e+00 0.000000000000000000e+00 -4.801819362999999896e+00 8.308276850000000380e+00 0.000000000000000000e+00 -3.152057469999999806e-01 -2.051658690000000007e-01 1.257285180699999927e+01
9.878797588999999491e+00 0.000000000000000000e+00 0.000000000000000000e+00 -5.058932326999999951e+00 8.253850815999999924e+00 0.000000000000000000e+00 2.068592429999999982e-01 3.282341690000000201e-01 1.280093749399999936e+01
9.746000873999999925e+00 0.000000000000000000e+00 0.000000000000000000e+00 -4.793074468000000365e+00 8.206933869000000215e+00 0.000000000000000000e+00 -1.110172479999999989e-01 -2.269968179999999891e-01 1.269158038800000021e+01
9.744232352999999236e+00 0.000000000000000000e+00 0.000000000000000000e+00 -4.652547590000000177e+00 8.658716158000000718e+00 0.000000000000000000e+00 -2.234964490000000137e-01 1.214182879999999992e-01 1.242439584799999963e+01
1.002135431900000029e+01 0.000000000000000000e+00 0.000000000000000000e+00 -5.155284919999999715e+00 8.530340239999999241e+00 0.000000000000000000e+00 1.642898720000000035e-01 1.341832619999999976e-01 1.222982794800000050e+01
9.723000800999999527e+00 0.000000000000000000e+00 0.000000000000000000e+00 -5.029411912999999679e+00 8.299486320999999833e+00 0.000000000000000000e+00 -6.560928300000000435e-02 3.293031599999999837e-01 1.266115106500000032e+01
9.588841028999999239e+00 0.000000000000000000e+00 0.000000000000000000e+00 -5.049968271000000009e+00 8.601731155999999601e+00 0.000000000000000000e+00 -2.274320009999999948e-01 3.462125099999999872e-02 1.235360514399999943e+01
9.864575586999999146e+00 0.000000000000000000e+00 0.000000000000000000e+00 -4.771927361000000367e+00 8.176401846999999279e+00 0.000000000000000000e+00 -1.984685389999999994e-01 -2.691870069999999782e-01 1.290443362399999927e+01
1.002108250400000067e+01 0.000000000000000000e+00 0.000000000000000000e+00 -4.906678579000000262e+00 8.297089873999999199e+00 0.000000000000000000e+00 -9.623145499999999353e-02 -3.516690230000000250e-01 1.230962979699999948e+01
9.641255081000000615e+00 0.000000000000000000e+00 0.000000000000000000e+00 -4.948241266000000138e+00 8.516624557000000095e+00 0.000000000000000000e+00 -2.506153300000000250e-01 -3.449289349999999921e-01 1.231123976599999992e+01
9.828814783101876174e+00 -2.792835407394502821e-21 0.000000000000000000e+00 -4.914486036347019748e+00 8.511957879230154234e+00 0.000000000000000000e+00 4.553041336879992090e-15 -9.999999999896350756e-10 1.265852202599999998e+01
1.011682045799999941e+01 0.000000000000000000e+00 0.000000000000000000e+00 -5.279375921999999832e+00 8.636841296000000057e+00 0.000000000000000000e+00 1.042894119999999980e-01 -2.547652029999999956e-01 1.237513097899999970e+01
9.959280756000000068e+00 0.000000000000000000e+00 0.000000000000000000e+00 -4.810337540999999995e+00 8.749532687000000308e+00 0.000000000000000000e+00 5.615777599999999953e-02 1.362427469999999974e-01 1.251511067999999938e+01
9.713931779999999350e+00 0.000000000000000000e+00 0.000000000000000000e+00 -4.780278164000000274e+00 8.612924472999999637e+00 0.000000000000000000e+00 2.772529579999999938e-01 -6.065671300000000099e-02 1.246960979300000005e+01
1.011025365000000065e+01 0.000000000000000000e+00 0.000000000000000000e+00 -5.039991018000000267e+00 8.684870604000000327e+00 0.000000000000000000e+00 1.545578380000000029e-01 3.313523389999999957e-01 1.276864270099999921e+01
9.743507461000000092e+00 0.000000000000000000e+00 0.000000000000000000e+00 -4.930020949000000208e+00 8.693406076000000482e+00 0.000000000000000000e+00 3.386005440000000033e-01 2.924925420000000220e-01 1.246656436499999998e+01
9.797531535999999264e+00 0.000000000000000000e+00 0.000000000000000000e+00 -4.769375752000000190e+00 8.609348270999999997e+00 0.000000000000000000e+00 -1.765310150000000133e-01 1.672339620000000138e-01 1.301945713499999968e+01
9.863261771999999539e+00 0.000000000000000000e+00 0.000000000000000000e+00 -4.986153683000000392e+00 8.506079981999999262e+00 0.000000000000000000e+00 -3.487188259999999818e-01 -4.043045000000000319e-03 1.286456810399999995e+01
9.818642282000000776e+00 0.000000000000000000e+00 0.000000000000000000e+00 -5.157829132999999899e+00 8.638221584000000064e+00 0.000000000000000000e+00 3.329762000000000000e-01 9.925721499999999586e-02 1.294104329199999981e+01
9.549648184000000484e+00 0.000000000000000000e+00 0.000000000000000000e+00 -4.886851242999999734e+00 8.570427213000000322e+00 0.000000000000000000e+00 2.956966010000000034e-01 -1.035711190000000032e-01 1.242058568999999935e+01
9.835716078000000806e+00 0.000000000000000000e+00 0.000000000000000000e+00 -5.074489618000000313e+00 8.423349448999999822e+00 0.000000000000000000e+00 -1.407411379999999879e-01 1.447143459999999937e-01 1.230063969999999962e+01
9.927102931102895766e+00 -1.066723098707253836e-21 0.000000000000000000e+00 -4.963630895458822856e+00 8.597077458727465427e+00 0.000000000000000000e+00 4.552989962296940360e-15 -9.999999999896352824e-10 1.278510724600000081e+01
9.631797420999999915e+00 0.000000000000000000e+00 0.000000000000000000e+00 -4.576942947000000039e+00 8.353544175999999766e+00 0.000000000000000000e+00 3.398349889999999762e-01 2.938905370000000072e-01 1.276765744599999941e+01
1.020102603499999994e+01 0.000000000000000000e+00 0.000000000000000000e+00 -5.322070795000000132e+00 8.441211694999999793e+00 0.000000000000000000e+00 3.952778299999999689e-02 -9.542467100000000257e-02 1.300931004000000080e+01
1.018100775899999988e+01 0.000000000000000000e+00 0.000000000000000000e+00 -5.290307725999999988e+00 8.554849525999999926e+00 0.000000000000000000e+00 2.355608170000000057e-01 3.212157070000000170e-01 1.254153419800000080e+01
1.016238130099999992e+01 0.000000000000000000e+00 0.000000000000000000e+00 -5.122520573000000077e+00 8.585159460999999936e+00 0.000000000000000000e+00 -3.751452400000000048e-02 2.984631380000000167e-01 1.288582391799999982e+01
1.000332871700000048e+01 0.000000000000000000e+00 0.000000000000000000e+00 -4.800746176999999726e+00 8.571509134999999446e+00 0.000000000000000000e+00 -3.851053569999999815e-01 -2.809024900000000116e-02 1.308663412399999970e+01
9.961536661000000237e+00 0.000000000000000000e+00 0.000000000000000000e+00 -4.857781864999999755e+00 8.344949524000000451e+00 0.000000000000000000e+00 -1.119610020000000039e-01 1.858356599999999928e-02 1.257297082300000035e+01
1.004248700599999999e+01 0.000000000000000000e+00 0.000000000000000000e+00 -5.164323765999999871e+00 8.382873252999999636e+00 0.000000000000000000e+00 -8.473551899999999526e-02 2.004802380000000050e-01 1.245955184900000035e+01
9.893638558999999333e+00 0.000000000000000000e+00 0.000000000000000000e+00 -4.978994219999999693e+00 8.811599321999999290e+00 0.000000000000000000e+00 -1.360671609999999920e-01 -3.020050739999999845e-01 1.246815718799999928e+01
9.814364239999999739e+00 0.000000000000000000e+00 0.000000000000000000e+00 -4.742988782000000292e+00 8.745232358999999178e+00 0.000000000000000000e+00 -4.215232800000000279e-02 2.112393710000000091e-01 1.287160360300000050e+01
9.970914591999999743e+00 0.000000000000000000e+00 0.000000000000000000e+00 -5.209410033000000162e+00 8.655407513000000108e+00 0.000000000000000000e+00 1.004773189999999955e-01 1.283259929999999993e-01 1.280219903100000067e+01
9.246303212000000826e+00 3.839791647683533445e-24 -4.135903062765138374e-25 -4.623152770363444297e+00 8.007532799499992748e+00 0.000000000000000000e+00 8.203644837382822530e-09 1.339850204106856928e-08 1.481093594600000074e+01
8.985050430999999449e+00 0.000000000000000000e+00 0.000000000000000000e+00 -4.429287357999999841e+00 8.187558964999999134e+00 0.000000000000000000e+00 2.301141919999999952e-01 1.920917000000000067e-03 1.452884098900000076e+01
9.343730606999999466e+00 0.000000000000000000e+00 0.000000000000000000e+00 -4.568035472000000041e+00 7.786168735999999591e+00 0.000000000000000000e+00 -3.244840200000000119e-02 -1.262179139999999866e-01 1.499560538899999962e+01
9.336197829999999698e+00 0.000000000000000000e+00 0.000000000000000000e+00 -4.742510563999999817e+00 7.807648363000000202e+00 0.000000000000000000e+00 8.668435000000000376e-03 1.015778279999999950e-01 1.508441321199999940e+01
9.326542465999999365e+00 0.000000000000000000e+00 0.000000000000000000e+00 -4.803527816999999978e+00 7.771008286999999903e+00 0.000000000000000000e+00 -3.079760420000000054e-01 -1.270584019999999870e-01 1.468943773099999994e+01
9.298805396000000556e+00 0.000000000000000000e+00 0.000000000000000000e+00 -4.416999361000000235e+00 8.044287867999999619e+00 0.000000000000000000e+00 4.379050079999999845e-01 2.710345719999999736e-01 1.448155946900000046e+01
9.046443040999999852e+00 0.000000000000000000e+00 0.000000000000000000e+00 -4.322654367000000164e+00 8.239518134000000771e+00 0.000000000000000000e+00 3.791576030000000097e-01 5.707431999999999783e-02 1.461454319099999921e+01
9.196900589000000181e+00 0.000000000000000000e+00 0.000000000000000000e+00 -4.634750550999999774e+00 8.003547049999999885e+00 0.000000000000000000e+00 -4.083972200000000191e-02 3.554126080000000187e-01 1.517617412999999971e+01
9.211155946999999955e+00 0.000000000000000000e+00 0.000000000000000000e+00 -4.392322461000000011e+00 7.831799559000000244e+00 0.000000000000000000e+00 -2.318806700000000109e-01 9.559710300000000271e-02 1.476533841000000002e+01
9.126285476999999702e+00 0.000000000000000000e+00 0.000000000000000000e+00 -4.721067055999999873e+00 8.127165227000000769e+00 0.000000000000000000e+00 3.267696950000000267e-01 6.485338599999999898e-02 1.449750594700000050e+01
9.253420614999999572e+00 0.000000000000000000e+00 0.000000000000000000e+00 -4.860729884000000389e+00 8.088503910000000019e+00 0.000000000000000000e+00 -4.859226199999999718e-02 1.292819309999999888e-01 1.489767567700000050e+01
9.339700215000000583e+00 -1.029392552036176273e-24 0.000000000000000000e+00 -4.669851283363444239e+00 8.088416969499991893e+00 8.271806125530276749e-25 8.203644837544713357e-09 1.339850204057487149e-08 1.496054136000000057e+01
9.486731875000000258e+00 0.000000000000000000e+00 0.000000000000000000e+00 -4.619670863999999710e+00 7.872266321999999761e+00 0.000000000000000000e+00 -2.242606699999999953e-01 -8.586518499999999665e-02 1.465909187499999966e+01
9.506776686000000254e+00 0.000000000000000000e+00 0.000000000000000000e+00 -4.951809770999999749e+00 8.014892194999999830e+00 0.000000000000000000e+00 3.526713419999999988e-01 3.458784630000000249e-01 1.463237096599999987e+01
9.311135997999999248e+00 0.000000000000000000e+00 0.000000000000000000e+00 -4.852328285999999657e+00 8.297952322000000436e+00 0.000000000000000000e+00 -7.600036000000000291e-02 3.670271920000000021e-01 1.467705013800000025e+01
9.502744923999999926e+00 0.000000000000000000e+00 0.000000000000000000e+00 -4.849194580999999893e+00 8.084278775999999667e+00 0.000000000000000000e+00 9.769397800000000076e-02 3.328439510000000268e-01 1.498859301399999922e+01
9.092702622999999207e+00 0.000000000000000000e+00 0.000000000000000000e+00 -4.488400447000000071e+00 7.862314331000000323e+00 0.000000000000000000e+00 -3.019973800000000028e-02 3.382179550000000146e-01 1.539583393400000055e+01
9.312079855000000350e+00 0.000000000000000000e+00 0.000000000000000000e+00 -4.711094118000000108e+00 8.262200862000000257e+00 0.000000000000000000e+00 2.047016200000000008e-02 -3.645222819999999753e-01 1.479977126500000040e+01
9.470471543000000381e+00 0.000000000000000000e+00 0.000000000000000000e+00 -4.833970083999999723e+00 8.108882794999999533e+00 0.000000000000000000e+00 3.818153859999999788e-01 -1.952697399999999972e-01 1.470953047599999941e+01
9.074965945000000644e+00 0.000000000000000000e+00 0.000000000000000000e+00 -4.302312242000000175e+00 7.923308338000000006e+00 0.000000000000000000e+00 3.192866189999999937e-01 -3.615887000000000268e-02 1.469902650999999949e+01
9.408106547999999236e+00 0.000000000000000000e+00 0.000000000000000000e+00 -4.910449482999999837e+00 8.057145711000000432e+00 0.000000000000000000e+00 7.748855000000000326e-02 2.301959160000000004e-01 1.520576924300000066e+01
9.262329834000000872e+00 0.000000000000000000e+00 0.000000000000000000e+00 -4.528906643000000010e+00 8.213410844000000210e+00 0.000000000000000000e+00 3.619904959999999949e-01 -4.452504950000000239e-01 1.509892691900000017e+01
9.433097217000000256e+00 -6.588188521744999962e-24 0.000000000000000000e+00 -4.716549796229469571e+00 8.169301137999992690e+00 4.135903062765138374e-25 8.203644837406959661e-09 1.339850204212300949e-08 1.511014677400000039e+01
9.702693287000000666e+00 0.000000000000000000e+00 0.000000000000000000e+00 -4.713273226000000093e+00 7.954693620999999659e+00 0.000000000000000000e+00 -1.161393250000000016e-01 4.004986119999999761e-01 1.555031593900000075e+01
9.619110202999999970e+00 0.000000000000000000e+00 0.000000000000000000e+00 -4.587649507000000071e+00 8.030748117999999991e+00 0.000000000000000000e+00 1.746351479999999901e-01 4.222617980000000215e-01 1.521051895099999918e+01
9.260044772000000535e+00 0.000000000000000000e+00 0.000000000000000000e+00 -4.721325679999999636e+00 8.348773736000000056e+00 0.000000000000000000e+00 2.240137349999999916e-01 2.573998200000000153e-02 1.544105449899999982e+01
9.519065345999999650e+00 0.000000000000000000e+00 0.000000000000000000e+00 -4.545795508000000318e+00 8.239352804999999336e+00 0.000000000000000000e+00 -3.248778010000000216e-01 4.015062139999999724e-01 1.504607492399999913e+01
9.297563819000000507e+00 0.000000000000000000e+00 0.000000000000000000e+00 -4.562573509999999999e+00 8.166297483999999329e+00 0.000000000000000000e+00 4.579814179999999735e-01 2.667506550000000032e-01 1.520990513399999955e+01
9.591808332999999465e+00 0.000000000000000000e+00 0.000000000000000000e+00 -4.640482409999999724e+00 8.368409621999999715e+00 0.000000000000000000e+00 -1.318245080000000069e-01 -1.650149519999999925e-01 1.544735883799999954e+01
9.566323116999999598e+00 0.000000000000000000e+00 0.000000000000000000e+00 -5.000503068999999634e+00 8.071841278000000841e+00 0.000000000000000000e+00 4.017896470000000275e-01 2.413498769999999904e-01 1.536690518800000049e+01
9.340773023000000563e+00 0.000000000000000000e+00 0.000000000000000000e+00 -4.664823175000000433e+00 8.185374296000000882e+00 0.000000000000000000e+00 -4.746680899999999870e-02 4.437161860000000124e-01 1.503819516199999917e+01
9.213840983000000762e+00 0.000000000000000000e+00 0.000000000000000000e+00 -4.666695022999999942e+00 8.252084592999999302e+00 0.000000000000000000e+00 -1.950456299999999907e-02 -3.883453600000000283e-02 1.489034312100000079e+01
9.704255083999999698e+00 0.000000000000000000e+00 0.000000000000000000e+00 -4.930752954999999993e+00 8.140301251000000349e+00 0.000000000000000000e+00 -3.508968099999999757e-02 1.920906059999999971e-01 1.484016590399999913e+01
