1.621725737017736702e+00 9.363073837123566667e-01 2.088659999999999961e+00 1.621725737017736702e+00 9.363073837123566667e-01 6.265970000000000262e+00 1.621725737017736702e+00 9.363073837123566667e-01 1.044327999999999967e+01 -4.705208946568003182e-05 3.745249999824591391e+00 2.088659999999999961e+00 -4.705208946568003182e-05 3.745249999824591391e+00 6.265970000000000262e+00 -4.705208946568003182e-05 3.745249999824591391e+00 1.044327999999999967e+01 -1.621829841242198089e+00 6.554202615891296269e+00 2.088659999999999961e+00 -1.621829841242198089e+00 6.554202615891296269e+00 6.265970000000000262e+00 -1.621829841242198089e+00 6.554202615891296269e+00 1.044327999999999967e+01 4.865235737075178868e+00 9.363021513841287558e-01 2.088659999999999961e+00 4.865235737075178868e+00 9.363021513841287558e-01 6.265970000000000262e+00 4.865235737075178868e+00 9.363021513841287558e-01 1.044327999999999967e+01 3.243462947922445938e+00 3.745254767496363435e+00 2.088659999999999961e+00 3.243462947922445938e+00 3.745254767496363435e+00 6.265970000000000262e+00 3.243462947922445938e+00 3.745254767496363435e+00 1.044327999999999967e+01 1.621680158815243189e+00 6.554197383563068691e+00 2.088659999999999961e+00 1.621680158815243189e+00 6.554197383563068691e+00 6.265970000000000262e+00 1.621680158815243189e+00 6.554197383563068691e+00 1.044327999999999967e+01 8.108745737087089012e+00 9.363069190559007993e-01 2.088659999999999961e+00 8.108745737087089012e+00 9.363069190559007993e-01 6.265970000000000262e+00 8.108745737087089012e+00 9.363069190559007993e-01 1.044327999999999967e+01 6.486962947979887595e+00 3.745249535122606055e+00 2.088659999999999961e+00 6.486962947979887595e+00 3.745249535122606055e+00 6.265970000000000262e+00 6.486962947979887595e+00 3.745249535122606055e+00 1.044327999999999967e+01 4.865190158827154221e+00 6.554202151234839846e+00 2.088659999999999961e+00 4.865190158827154221e+00 6.554202151234839846e+00 6.265970000000000262e+00 4.865190158827154221e+00 6.554202151234839846e+00 1.044327999999999967e+01 -1.852597643802714701e-05 1.872609999935060943e+00 0.000000000000000000e+00 -1.852597643802714701e-05 1.872609999935060943e+00 4.177310000000000301e+00 -1.852597643802714701e-05 1.872609999935060943e+00 8.354620000000000601e+00 -1.621801315129170584e+00 4.681562616001765598e+00 0.000000000000000000e+00 -1.621801315129170584e+00 4.681562616001765598e+00 4.177310000000000301e+00 -1.621801315129170584e+00 4.681562616001765598e+00 8.354620000000000601e+00 -3.243574104236372602e+00 7.490505232114000655e+00 0.000000000000000000e+00 -3.243574104236372602e+00 7.490505232114000655e+00 4.177310000000000301e+00 -3.243574104236372602e+00 7.490505232114000655e+00 8.354620000000000601e+00 3.243491474035473221e+00 1.872614767606832986e+00 0.000000000000000000e+00 3.243491474035473221e+00 1.872614767606832986e+00 4.177310000000000301e+00 3.243491474035473221e+00 1.872614767606832986e+00 8.354620000000000601e+00 1.621708684928270694e+00 4.681557383673537132e+00 0.000000000000000000e+00 1.621708684928270694e+00 4.681557383673537132e+00 4.177310000000000301e+00 1.621708684928270694e+00 4.681557383673537132e+00 8.354620000000000601e+00 -7.410417893156736485e-05 7.490499999740242387e+00 0.000000000000000000e+00 -7.410417893156736485e-05 7.490499999740242387e+00 4.177310000000000301e+00 -7.410417893156736485e-05 7.490499999740242387e+00 8.354620000000000601e+00 6.487001474092914499e+00 1.872609535278604964e+00 0.000000000000000000e+00 6.487001474092914499e+00 1.872609535278604964e+00 4.177310000000000301e+00 6.487001474092914499e+00 1.872609535278604964e+00 8.354620000000000601e+00 4.865218684940182392e+00 4.681562151345310063e+00 0.000000000000000000e+00 4.865218684940182392e+00 4.681562151345310063e+00 4.177310000000000301e+00 4.865218684940182392e+00 4.681562151345310063e+00 8.354620000000000601e+00 3.243435895832979643e+00 7.490504767412015319e+00 0.000000000000000000e+00 3.243435895832979643e+00 7.490504767412015319e+00 4.177310000000000301e+00 3.243435895832979643e+00 7.490504767412015319e+00 8.354620000000000601e+00 1.621725737017736702e+00 9.363073837123566667e-01 0.000000000000000000e+00 1.621725737017736702e+00 9.363073837123566667e-01 4.177310000000000301e+00 1.621725737017736702e+00 9.363073837123566667e-01 8.354620000000000601e+00 -4.705208946568003182e-05 3.745249999824591391e+00 0.000000000000000000e+00 -4.705208946568003182e-05 3.745249999824591391e+00 4.177310000000000301e+00 -4.705208946568003182e-05 3.745249999824591391e+00 8.354620000000000601e+00 -1.621829841242198089e+00 6.554202615891296269e+00 0.000000000000000000e+00 -1.621829841242198089e+00 6.554202615891296269e+00 4.177310000000000301e+00 -1.621829841242198089e+00 6.554202615891296269e+00 8.354620000000000601e+00 4.865235737075178868e+00 9.363021513841287558e-01 0.000000000000000000e+00 4.865235737075178868e+00 9.363021513841287558e-01 4.177310000000000301e+00 4.865235737075178868e+00 9.363021513841287558e-01 8.354620000000000601e+00 3.243462947922445938e+00 3.745254767496363435e+00 0.000000000000000000e+00 3.243462947922445938e+00 3.745254767496363435e+00 4.177310000000000301e+00 3.243462947922445938e+00 3.745254767496363435e+00 8.354620000000000601e+00 1.621680158815243189e+00 6.554197383563068691e+00 0.000000000000000000e+00 1.621680158815243189e+00 6.554197383563068691e+00 4.177310000000000301e+00 1.621680158815243189e+00 6.554197383563068691e+00 8.354620000000000601e+00 8.108745737087089012e+00 9.363069190559007993e-01 0.000000000000000000e+00 8.108745737087089012e+00 9.363069190559007993e-01 4.177310000000000301e+00 8.108745737087089012e+00 9.363069190559007993e-01 8.354620000000000601e+00 6.486962947979887595e+00 3.745249535122606055e+00 0.000000000000000000e+00 6.486962947979887595e+00 3.745249535122606055e+00 4.177310000000000301e+00 6.486962947979887595e+00 3.745249535122606055e+00 8.354620000000000601e+00 4.865190158827154221e+00 6.554202151234839846e+00 0.000000000000000000e+00 4.865190158827154221e+00 6.554202151234839846e+00 4.177310000000000301e+00 4.865190158827154221e+00 6.554202151234839846e+00 8.354620000000000601e+00 -1.852597643802714701e-05 1.872609999935060943e+00 2.088659999999999961e+00 -1.852597643802714701e-05 1.872609999935060943e+00 6.265970000000000262e+00 -1.852597643802714701e-05 1.872609999935060943e+00 1.044327999999999967e+01 -1.621801315129170584e+00 4.681562616001765598e+00 2.088659999999999961e+00 -1.621801315129170584e+00 4.681562616001765598e+00 6.265970000000000262e+00 -1.621801315129170584e+00 4.681562616001765598e+00 1.044327999999999967e+01 -3.243574104236372602e+00 7.490505232114000655e+00 2.088659999999999961e+00 -3.243574104236372602e+00 7.490505232114000655e+00 6.265970000000000262e+00 -3.243574104236372602e+00 7.490505232114000655e+00 1.044327999999999967e+01 3.243491474035473221e+00 1.872614767606832986e+00 2.088659999999999961e+00 3.243491474035473221e+00 1.872614767606832986e+00 6.265970000000000262e+00 3.243491474035473221e+00 1.872614767606832986e+00 1.044327999999999967e+01 1.621708684928270694e+00 4.681557383673537132e+00 2.088659999999999961e+00 1.621708684928270694e+00 4.681557383673537132e+00 6.265970000000000262e+00 1.621708684928270694e+00 4.681557383673537132e+00 1.044327999999999967e+01 -7.410417893156736485e-05 7.490499999740242387e+00 2.088659999999999961e+00 -7.410417893156736485e-05 7.490499999740242387e+00 6.265970000000000262e+00 -7.410417893156736485e-05 7.490499999740242387e+00 1.044327999999999967e+01 6.487001474092914499e+00 1.872609535278604964e+00 2.088659999999999961e+00 6.487001474092914499e+00 1.872609535278604964e+00 6.265970000000000262e+00 6.487001474092914499e+00 1.872609535278604964e+00 1.044327999999999967e+01 4.865218684940182392e+00 4.681562151345310063e+00 2.088659999999999961e+00 4.865218684940182392e+00 4.681562151345310063e+00 6.265970000000000262e+00 4.865218684940182392e+00 4.681562151345310063e+00 1.044327999999999967e+01 3.243435895832979643e+00 7.490504767412015319e+00 2.088659999999999961e+00 3.243435895832979643e+00 7.490504767412015319e+00 6.265970000000000262e+00 3.243435895832979643e+00 7.490504767412015319e+00 1.044327999999999967e+01
1.524000000000000021e+00 8.890299999999999869e-01 2.092420000000000169e+00 1.404689999999999994e+00 8.174400000000000555e-01 6.286349999999999660e+00 1.300440000000000040e+00 7.628399999999999626e-01 1.047836999999999996e+01 -6.776999999999999691e-02 3.653129999999999988e+00 2.106689999999999952e+00 -1.875499999999999945e-01 3.585609999999999964e+00 6.270539999999999559e+00 -2.817999999999999949e-01 3.526569999999999983e+00 1.047775999999999996e+01 -1.671000000000000041e+00 6.432970000000000077e+00 2.102939999999999809e+00 -1.775439999999999907e+00 6.361209999999999809e+00 6.291949999999999932e+00 -1.881559999999999899e+00 6.291260000000000296e+00 1.047376000000000040e+01 4.694009999999999572e+00 8.832999999999999741e-01 2.101620000000000044e+00 4.587089999999999890e+00 8.166999999999999815e-01 6.283780000000000143e+00 4.482459999999999667e+00 7.403899999999999926e-01 1.046494999999999997e+01 3.089080000000000048e+00 3.651839999999999975e+00 2.093710000000000182e+00 2.987909999999999844e+00 3.588099999999999845e+00 6.282029999999999781e+00 2.882470000000000088e+00 3.506320000000000103e+00 1.047244000000000064e+01 1.497540000000000093e+00 6.425370000000000026e+00 2.088260000000000005e+00 1.388910000000000089e+00 6.350620000000000154e+00 6.291839999999999655e+00 1.281360000000000054e+00 6.305920000000000414e+00 1.048476999999999926e+01 7.845559999999999867e+00 8.880500000000000060e-01 2.091380000000000017e+00 7.748409999999999798e+00 8.189699999999999758e-01 6.295930000000000248e+00 7.646849999999999703e+00 7.471499999999999808e-01 1.048792000000000080e+01 6.260430000000000383e+00 3.654760000000000009e+00 2.095819999999999794e+00 6.148859999999999992e+00 3.596649999999999903e+00 6.281089999999999840e+00 6.041500000000000092e+00 3.536570000000000213e+00 1.047883000000000031e+01 4.646340000000000359e+00 6.423639999999999795e+00 2.092260000000000009e+00 4.541640000000000121e+00 6.364300000000000068e+00 6.291540000000000354e+00 4.442040000000000433e+00 6.293800000000000061e+00 1.048039999999999949e+01 -1.353999999999999995e-02 1.843050000000000077e+00 1.000000000000000082e-05 -1.166599999999999998e-01 1.777579999999999938e+00 4.190970000000000084e+00 -2.217800000000000049e-01 1.708639999999999937e+00 8.380810000000000315e+00 -1.928279999999999994e+00 4.401030000000000442e+00 1.256817999999999991e+01 -1.721850000000000103e+00 4.546660000000000146e+00 4.205160000000000231e+00 -1.823209999999999997e+00 4.478780000000000427e+00 8.380179999999999296e+00 -3.215090000000000003e+00 7.392280000000000406e+00 1.431999999999999940e-02 -3.320650000000000102e+00 7.309610000000000163e+00 4.177369999999999806e+00 -3.423890000000000100e+00 7.247869999999999813e+00 8.382999999999999119e+00 3.150059999999999860e+00 1.859390000000000098e+00 7.139999999999999646e-03 3.038740000000000219e+00 1.782289999999999930e+00 4.190249999999999808e+00 2.948679999999999968e+00 1.693710000000000049e+00 8.390390000000000015e+00 1.231319999999999970e+00 4.409839999999999982e+00 1.257173000000000052e+01 1.450129999999999919e+00 4.550810000000000244e+00 4.195660000000000167e+00 1.348470000000000057e+00 4.486449999999999605e+00 8.375939999999999941e+00 -4.522000000000000325e-02 7.382579999999999920e+00 1.080000000000000057e-02 -1.456899999999999862e-01 7.311860000000000248e+00 4.196380000000000443e+00 -2.561399999999999788e-01 7.250600000000000378e+00 8.382080000000000197e+00 6.310200000000000031e+00 1.847420000000000062e+00 1.231999999999999935e-02 6.223530000000000229e+00 1.787220000000000031e+00 4.181879999999999598e+00 6.117280000000000051e+00 1.712239999999999984e+00 8.383070000000000022e+00 4.717369999999999841e+00 4.614449999999999719e+00 1.549999999999999946e-03 4.610560000000000436e+00 4.558860000000000134e+00 4.175930000000000142e+00 4.504800000000000360e+00 4.483889999999999709e+00 8.391949999999999577e+00 2.803110000000000213e+00 7.180049999999999599e+00 1.257267000000000046e+01 3.009720000000000173e+00 7.316749999999999865e+00 4.197619999999999685e+00 2.908409999999999940e+00 7.250609999999999999e+00 8.386710000000000775e+00 1.577020000000000088e+00 9.135100000000000442e-01 8.810000000000000123e-03 1.469389999999999974e+00 8.540999999999999703e-01 4.194169999999999732e+00 1.361750000000000016e+00 7.820899999999999519e-01 8.380869999999999820e+00 -1.348000000000000066e-02 3.695819999999999883e+00 6.999999999999999387e-05 -1.298600000000000032e-01 3.624929999999999986e+00 4.190529999999999866e+00 -2.353300000000000114e-01 3.557380000000000209e+00 8.383330000000000837e+00 -1.951980000000000048e+00 6.256759999999999877e+00 1.256826000000000043e+01 -1.727999999999999980e+00 6.394239999999999924e+00 4.190620000000000012e+00 -1.850300000000000056e+00 6.322869999999999990e+00 8.392250000000000654e+00 4.733410000000000117e+00 9.204299999999999704e-01 6.760000000000000384e-03 4.626339999999999897e+00 8.438400000000000345e-01 4.197119999999999962e+00 4.530949999999999811e+00 7.890599999999999836e-01 8.395369999999999777e+00 2.828969999999999985e+00 3.488379999999999814e+00 1.257091999999999921e+01 3.038009999999999877e+00 3.621290000000000120e+00 4.192389999999999617e+00 2.929060000000000219e+00 3.553430000000000089e+00 8.385640000000000427e+00 1.231419999999999959e+00 6.254439999999999777e+00 1.256905000000000072e+01 1.447670000000000012e+00 6.394829999999999792e+00 4.202130000000000365e+00 1.332570000000000032e+00 6.326010000000000133e+00 8.384000000000000341e+00 7.907939999999999969e+00 9.253400000000000514e-01 3.959999999999999978e-03 7.796529999999999738e+00 8.678000000000000158e-01 4.201060000000000016e+00 7.697490000000000165e+00 7.863499999999999934e-01 8.381320000000000547e+00 5.992890000000000050e+00 3.490260000000000140e+00 1.256638000000000055e+01 6.192429999999999879e+00 3.611619999999999830e+00 4.196839999999999904e+00 6.095419999999999838e+00 3.552680000000000060e+00 8.378310000000000812e+00 4.692149999999999821e+00 6.467749999999999666e+00 1.056999999999999953e-02 4.601029999999999731e+00 6.395539999999999559e+00 4.196640000000000370e+00 4.494270000000000209e+00 6.328109999999999680e+00 8.387040000000000717e+00 -6.042999999999999761e-02 1.816899999999999959e+00 2.094990000000000130e+00 -1.694700000000000095e-01 1.743430000000000035e+00 6.286170000000000258e+00 -2.756100000000000216e-01 1.676360000000000072e+00 1.047425999999999924e+01 -1.659429999999999961e+00 4.590700000000000003e+00 2.104519999999999946e+00 -1.768950000000000022e+00 4.514079999999999870e+00 6.304590000000000138e+00 -1.873369999999999980e+00 4.446950000000000180e+00 1.047389000000000081e+01 -3.266739999999999977e+00 7.352149999999999963e+00 2.096000000000000085e+00 -3.375500000000000167e+00 7.277070000000000149e+00 6.298390000000000377e+00 -3.475039999999999907e+00 7.214669999999999916e+00 1.047781999999999947e+01 3.113179999999999836e+00 1.811760000000000037e+00 2.102020000000000000e+00 2.998510000000000009e+00 1.745999999999999996e+00 6.285929999999999573e+00 2.879169999999999785e+00 1.678109999999999991e+00 1.048845999999999989e+01 1.512480000000000047e+00 4.589000000000000412e+00 2.082559999999999967e+00 1.400060000000000082e+00 4.515419999999999767e+00 6.290860000000000340e+00 1.294219999999999926e+00 4.442330000000000112e+00 1.047354999999999947e+01 -9.124000000000000166e-02 7.351099999999999746e+00 2.095870000000000122e+00 -2.061900000000000122e-01 7.290829999999999700e+00 6.278139999999999610e+00 -3.021099999999999897e-01 7.207220000000000404e+00 1.048393000000000086e+01 6.266770000000000174e+00 1.812040000000000095e+00 2.095229999999999926e+00 6.163700000000000401e+00 1.746250000000000080e+00 6.287980000000000125e+00 6.057030000000000136e+00 1.674250000000000016e+00 1.047702999999999918e+01 4.658850000000000158e+00 4.585460000000000313e+00 2.106180000000000163e+00 4.561460000000000292e+00 4.507590000000000430e+00 6.282510000000000261e+00 4.447250000000000369e+00 4.446699999999999875e+00 1.047369999999999912e+01 3.073459999999999859e+00 7.358719999999999928e+00 2.085370000000000168e+00 2.960599999999999898e+00 7.282910000000000217e+00 6.285929999999999573e+00 2.856360000000000010e+00 7.213580000000000325e+00 1.047531999999999996e+01
1.676649999999999974e+00 9.669799999999999507e-01 2.138710000000000111e+00 1.740380000000000038e+00 1.073450000000000015e+00 6.407589999999999897e+00 1.800939999999999985e+00 1.185459999999999958e+00 1.067177000000000042e+01 -1.821000000000000049e-02 3.723469999999999835e+00 2.133890000000000065e+00 4.705000000000000154e-02 3.823700000000000099e+00 6.415309999999999846e+00 1.235200000000000048e-01 3.947080000000000144e+00 1.066165999999999947e+01 -1.704960000000000031e+00 6.468499999999999694e+00 2.131450000000000067e+00 -1.621869999999999923e+00 6.589170000000000194e+00 6.393659999999999677e+00 -1.566799999999999971e+00 6.693399999999999572e+00 1.066760000000000019e+01 4.958510000000000417e+00 9.712499999999999467e-01 2.132690000000000197e+00 5.026980000000000004e+00 1.078489999999999949e+00 6.385309999999999597e+00 5.102610000000000312e+00 1.189519999999999911e+00 1.066294000000000075e+01 3.263819999999999943e+00 3.713109999999999911e+00 2.133439999999999781e+00 3.331890000000000018e+00 3.837460000000000093e+00 6.405979999999999563e+00 3.412040000000000184e+00 3.941769999999999996e+00 1.066676999999999964e+01 1.588610000000000078e+00 6.475769999999999804e+00 2.136379999999999946e+00 1.654889999999999972e+00 6.584690000000000154e+00 6.409309999999999619e+00 1.725419999999999954e+00 6.690500000000000114e+00 1.067008000000000045e+01 8.249679999999999680e+00 9.662399999999999878e-01 2.132769999999999833e+00 8.314059999999999562e+00 1.088999999999999968e+00 6.391899999999999693e+00 8.391959999999999198e+00 1.190469999999999917e+00 1.066699999999999982e+01 6.569530000000000314e+00 3.727360000000000007e+00 2.150009999999999977e+00 6.644180000000000419e+00 3.825530000000000097e+00 6.397339999999999804e+00 6.708009999999999806e+00 3.950520000000000032e+00 1.068266000000000027e+01 4.887179999999999858e+00 6.474829999999999863e+00 2.127079999999999860e+00 4.948599999999999888e+00 6.582970000000000432e+00 6.397009999999999863e+00 5.029189999999999827e+00 6.708470000000000155e+00 1.066342000000000034e+01 1.787300000000000000e-01 2.174009999999999998e+00 1.279751000000000083e+01 4.836000000000000021e-02 1.952190000000000092e+00 4.254780000000000229e+00 9.431000000000000494e-02 2.050409999999999844e+00 8.531599999999999184e+00 -1.725619999999999932e+00 4.575510000000000410e+00 2.639999999999999986e-03 -1.634800000000000031e+00 4.703420000000000378e+00 4.260939999999999728e+00 -1.589960000000000040e+00 4.795919999999999739e+00 8.537699999999999179e+00 -3.186980000000000146e+00 7.663400000000000212e+00 1.280087999999999937e+01 -3.325330000000000119e+00 7.446979999999999933e+00 4.270459999999999923e+00 -3.261540000000000106e+00 7.565820000000000434e+00 8.536479999999999180e+00 3.469129999999999825e+00 2.167139999999999844e+00 1.279296000000000078e+01 3.341810000000000169e+00 1.939519999999999911e+00 4.258519999999999861e+00 3.403099999999999792e+00 2.053830000000000044e+00 8.532790000000000319e+00 1.785029999999999895e+00 4.915809999999999569e+00 1.279963000000000051e+01 1.654230000000000089e+00 4.699659999999999727e+00 4.270229999999999748e+00 1.724790000000000045e+00 4.818200000000000038e+00 8.526669999999999305e+00 8.470999999999999364e-02 7.670060000000000322e+00 1.279175000000000040e+01 -3.790000000000000313e-02 7.442590000000000039e+00 4.263560000000000016e+00 2.035999999999999963e-02 7.548820000000000086e+00 8.522690000000000765e+00 6.557380000000000209e+00 1.836680000000000090e+00 1.930000000000000075e-03 6.641090000000000160e+00 1.937880000000000047e+00 4.263760000000000439e+00 6.700560000000000294e+00 2.047330000000000094e+00 8.545009999999999550e+00 5.094680000000000319e+00 4.919059999999999988e+00 1.279995000000000083e+01 4.936539999999999928e+00 4.678639999999999688e+00 4.263779999999999681e+00 5.009940000000000282e+00 4.799120000000000275e+00 8.542939999999999756e+00 3.385920000000000041e+00 7.657259999999999955e+00 1.279476999999999975e+01 3.257420000000000204e+00 7.442440000000000389e+00 4.268030000000000435e+00 3.322529999999999983e+00 7.551779999999999937e+00 8.534679999999999822e+00 1.635129999999999972e+00 9.175699999999999967e-01 2.809999999999999998e-03 1.702390000000000070e+00 1.008839999999999959e+00 4.270559999999999690e+00 1.763759999999999994e+00 1.129480000000000040e+00 8.532329999999999970e+00 -4.639000000000000068e-02 3.666679999999999939e+00 5.299999999999999807e-04 9.509999999999999357e-03 3.765509999999999913e+00 4.274659999999999904e+00 7.617000000000000159e-02 3.887539999999999996e+00 8.522019999999999484e+00 -1.534030000000000005e+00 6.734060000000000379e+00 1.279359999999999964e+01 -1.674790000000000001e+00 6.528220000000000134e+00 4.273590000000000444e+00 -1.606719999999999926e+00 6.645080000000000098e+00 8.535510000000000375e+00 4.929120000000000168e+00 9.200199999999999489e-01 2.820000000000000024e-03 5.006890000000000285e+00 1.014389999999999903e+00 4.265450000000000408e+00 5.067070000000000185e+00 1.137450000000000072e+00 8.531319999999999126e+00 3.237919999999999909e+00 3.661820000000000075e+00 2.700000000000000035e-04 3.319799999999999862e+00 3.775349999999999984e+00 4.252889999999999837e+00 3.379539999999999988e+00 3.888580000000000148e+00 8.535489999999999355e+00 1.551590000000000025e+00 6.423639999999999795e+00 2.939999999999999905e-03 1.635420000000000096e+00 6.514999999999999680e+00 4.272400000000000198e+00 1.689550000000000107e+00 6.637870000000000381e+00 8.533860000000000667e+00 8.216440000000000410e+00 9.216299999999999493e-01 1.709999999999999932e-03 8.297470000000000567e+00 1.023740000000000094e+00 4.278369999999999784e+00 8.352800000000000225e+00 1.145420000000000105e+00 8.534629999999999939e+00 6.737569999999999837e+00 3.986979999999999968e+00 1.279879999999999995e+01 6.613039999999999807e+00 3.769239999999999924e+00 4.275750000000000384e+00 6.680489999999999817e+00 3.878140000000000143e+00 8.533979999999999677e+00 5.041839999999999655e+00 6.750619999999999621e+00 1.278636000000000017e+01 4.907259999999999955e+00 6.524250000000000327e+00 4.260309999999999597e+00 4.985260000000000247e+00 6.638880000000000337e+00 8.533580000000000609e+00 6.899999999999999883e-03 1.885650000000000048e+00 2.134570000000000078e+00 6.481000000000000649e-02 2.005609999999999893e+00 6.389499999999999957e+00 1.497900000000000065e-01 2.106809999999999850e+00 1.066769999999999996e+01 -1.663960000000000106e+00 4.647070000000000256e+00 2.131229999999999958e+00 -1.595860000000000056e+00 4.752500000000000391e+00 6.403810000000000002e+00 -1.539339999999999931e+00 4.859289999999999665e+00 1.066632000000000069e+01 -3.373819999999999819e+00 7.387170000000000236e+00 2.125420000000000087e+00 -3.305769999999999875e+00 7.507780000000000342e+00 6.410709999999999908e+00 -3.211619999999999919e+00 7.603449999999999598e+00 1.066440000000000055e+01 3.293070000000000164e+00 1.873559999999999892e+00 2.139909999999999979e+00 3.372619999999999951e+00 1.984799999999999898e+00 6.386840000000000295e+00 3.437320000000000153e+00 2.106899999999999995e+00 1.066060000000000052e+01 1.607259999999999911e+00 4.634830000000000005e+00 2.138819999999999943e+00 1.683729999999999949e+00 4.750549999999999606e+00 6.402849999999999930e+00 1.745400000000000063e+00 4.861270000000000202e+00 1.067425000000000068e+01 -6.908000000000000251e-02 7.393609999999999793e+00 2.136039999999999939e+00 -8.259999999999999981e-03 7.507500000000000284e+00 6.402739999999999654e+00 5.902000000000000302e-02 7.615169999999999995e+00 1.066090999999999944e+01 6.603279999999999816e+00 1.878910000000000080e+00 2.133799999999999919e+00 6.667069999999999830e+00 1.992119999999999891e+00 6.399810000000000443e+00 6.731010000000000382e+00 2.109539999999999971e+00 1.066493999999999964e+01 4.913840000000000430e+00 4.650360000000000049e+00 2.143060000000000187e+00 4.972310000000000230e+00 4.735470000000000290e+00 6.391519999999999868e+00 5.048269999999999591e+00 4.859750000000000014e+00 1.066554999999999964e+01 3.209429999999999783e+00 7.384999999999999787e+00 2.145890000000000075e+00 3.287959999999999994e+00 7.498949999999999783e+00 6.398249999999999993e+00 3.360129999999999839e+00 7.611449999999999605e+00 1.066670000000000051e+01