-7.900586171500000319e+02
-7.845840307500000108e+02
-7.883401372900000297e+02
-7.869782301799999686e+02
-7.903170334699999557e+02
-7.904755911500000138e+02
-7.879160093199999437e+02
-7.879964330200000404e+02
-7.870730288199999904e+02
-7.881378072500000371e+02
-7.877769415200000367e+02
-7.915150227499999573e+02
-7.907369077500000003e+02
-7.911543899800000190e+02
-7.903322971400000370e+02
-7.900342530799999849e+02
-7.901416363600000068e+02
-7.904434116800000538e+02
-7.907985103900000468e+02
-7.900185931600000231e+02
-7.878877552799999648e+02
-7.892544535499999938e+02
-7.916518639900000380e+02
-7.873125975000000381e+02
-7.889030939699999863e+02
-7.901377097900000308e+02
-7.897245024799999555e+02
-7.893677983200000199e+02
-7.901265531599999576e+02
-7.901441456000000017e+02
-7.906946536799999876e+02
-7.903592663099999527e+02
-7.907534196599999632e+02
-8.024873183199999858e+02
-7.979381207400000449e+02
-8.003147059299999455e+02
-8.009379093799999509e+02
-7.981773883099999694e+02
-7.995480199600000333e+02
-7.992261640599999737e+02
-8.023591979899999842e+02
-7.986720890899999858e+02
-7.992796001299999489e+02
-8.026124218100000007e+02
-8.039229779199999939e+02
-8.005320651299999781e+02
-8.013002668000000313e+02
-8.018684122900000375e+02
-8.034211611599999969e+02
-7.991322399599999926e+02
-8.028737572700000555e+02
-8.025924526600000490e+02
-7.977924452700000302e+02
-8.032147185600000512e+02
-8.028862948900000447e+02
-8.040117748599999459e+02
-7.999903923299999633e+02
-8.019925528400000303e+02
-8.016565975500000150e+02
-8.024559799200000043e+02
-8.030572888299999477e+02
-7.999848498600000539e+02
-8.019365807200000518e+02
-8.034900758100000076e+02
-8.029668999699999858e+02
-8.021643883000000415e+02
