7.419988571915734797e-04 2.510033783167051882e-04 9.999999999999999547e-07 7.449988389795783811e-04 2.550033919756367474e-04 -1.999999999999999909e-06 7.449988389795783811e-04 2.550033919756367474e-04 0.000000000000000000e+00 1.520033054698756870e-04 -7.259993079378461878e-04 -9.999999999999999547e-07 1.520033100228666465e-04 -7.269993079378359122e-04 1.999999999999999909e-06 1.520033145758576331e-04 -7.279993079378255282e-04 -9.999999999999999547e-07 -3.960010335248478745e-04 2.269981970132192804e-04 3.000000000000000076e-06 -3.960010289718568608e-04 2.259981970132296644e-04 -3.999999999999999819e-06 -3.940010380778595478e-04 2.279982061191908967e-04 0.000000000000000000e+00 1.559920504761328560e-04 1.746000710248495806e-03 0.000000000000000000e+00 1.539920368171806642e-04 1.749000701142482735e-03 -9.999999999999999547e-07 1.519920504761743379e-04 1.746000692036531752e-03 9.999999999999999547e-07 1.743004575737868442e-03 -1.004992064126306170e-03 -9.999999999999999547e-07 1.741004598502844062e-03 -1.009992073232236168e-03 0.000000000000000000e+00 1.744004603055804032e-03 -1.010992059573252852e-03 9.999999999999999547e-07 7.029989619107701463e-04 2.280032007502954346e-04 -1.999999999999999909e-06 7.009989664637819281e-04 2.270031916443238183e-04 0.000000000000000000e+00 7.009989482518179816e-04 2.310031916442823634e-04 1.999999999999999909e-06 -4.420011382431636329e-04 2.499979875753958764e-04 -9.999999999999999547e-07 -4.430011564551171953e-04 2.539979830223634350e-04 1.999999999999999909e-06 -4.420011382431636329e-04 2.499979875753958764e-04 -9.999999999999999547e-07 -1.440995396911184077e-03 -1.011006560849522697e-03 0.000000000000000000e+00 -1.439995383252221529e-03 -1.014006556296500423e-03 -1.999999999999999909e-06 -1.442995392358172512e-03 -1.012006569955494232e-03 1.999999999999999909e-06 1.480035331194660931e-04 -7.759993261492919084e-04 9.999999999999999547e-07 1.500035331194453521e-04 -7.759993170433099894e-04 -9.999999999999999547e-07 1.470035376724674366e-04 -7.769993307022725381e-04 0.000000000000000000e+00 -1.540035103544490185e-04 7.709992988313978547e-04 -9.999999999999999547e-07 -1.520035058014787728e-04 7.699993079373901577e-04 9.999999999999999547e-07 -1.540035103544490185e-04 7.709992988313978547e-04 0.000000000000000000e+00 1.436995415123189235e-03 1.007006542637600179e-03 0.000000000000000000e+00 1.436995396911225397e-03 1.011006542637558642e-03 9.999999999999999547e-07 1.439995415123158408e-03 1.007006556296573220e-03 -9.999999999999999547e-07 4.390011746671225153e-04 -2.579980012342858453e-04 0.000000000000000000e+00 4.410011746671018014e-04 -2.579979921283038721e-04 0.000000000000000000e+00 4.400011655611302122e-04 -2.559979966813155997e-04 9.999999999999999547e-07 -7.039989482517869379e-04 -2.310032053032552962e-04 -5.000000000000000409e-06 -7.049989391457946349e-04 -2.330032098562255418e-04 3.999999999999999819e-06 -7.049989436987855402e-04 -2.320032098562359259e-04 9.999999999999999547e-07 -1.744004580290849180e-03 1.005992059573304663e-03 1.999999999999999909e-06 -1.745004575737847674e-03 1.004992055020324142e-03 9.999999999999999547e-07 -1.745004571184856877e-03 1.003992055020334418e-03 -1.999999999999999909e-06 -1.539920094992347716e-04 -1.755000701142420648e-03 -3.000000000000000076e-06 -1.579920094991933168e-04 -1.755000719354384486e-03 0.000000000000000000e+00 -1.559920186051960039e-04 -1.753000710248423227e-03 3.000000000000000076e-06 3.950010517368221508e-04 -2.309982015661688393e-04 -9.999999999999999547e-07 3.940010517368324806e-04 -2.309982061191597988e-04 1.999999999999999909e-06 3.950010653957950835e-04 -2.339982015661377143e-04 -1.999999999999999909e-06 -1.550032872578806697e-04 7.219992942789147912e-04 -9.999999999999999547e-07 -1.540032872578910267e-04 7.219992988319056965e-04 -9.999999999999999547e-07 -1.560032872578702857e-04 7.219992897259237775e-04 1.999999999999999909e-06 -7.479988207675833910e-04 -2.590034056345681983e-04 0.000000000000000000e+00 -7.469988207675938834e-04 -2.590034010815771845e-04 -3.000000000000000076e-06 -7.479988298735653100e-04 -2.570034056345889121e-04 3.000000000000000076e-06 6.049992441972266207e-04 1.660027545578220414e-04 -9.999999999999999547e-07 6.049992441972266207e-04 1.660027545578220414e-04 9.999999999999999547e-07 6.049992441972266207e-04 1.660027545578220414e-04 0.000000000000000000e+00 1.660045575422499221e-04 -1.000999244193122133e-03 0.000000000000000000e+00 1.660045620952409087e-04 -1.001999244193111857e-03 9.999999999999999547e-07 1.660045575422499221e-04 -1.000999244193122133e-03 -9.999999999999999547e-07 -6.250016891531754186e-04 3.709971543767924627e-04 0.000000000000000000e+00 -6.240016846001946805e-04 3.699971589297938062e-04 0.000000000000000000e+00 -6.250016846001844048e-04 3.699971543768028467e-04 0.000000000000000000e+00 1.589979648113841286e-04 4.470007239209327168e-04 -9.999999999999999547e-07 1.599979648113737988e-04 4.470007284739236763e-04 9.999999999999999547e-07 1.589979602583931691e-04 4.480007239209222785e-04 0.000000000000000000e+00 6.260016572822281553e-04 -3.639971498238740288e-04 0.000000000000000000e+00 6.260016572822281553e-04 -3.639971498238740288e-04 9.999999999999999547e-07 6.260016527292371416e-04 -3.629971498238844128e-04 0.000000000000000000e+00 9.459983427014783926e-04 3.640043071256938208e-04 0.000000000000000000e+00 9.459983427014783926e-04 3.640043071256938208e-04 -9.999999999999999547e-07 9.459983427014783926e-04 3.640043071256938208e-04 0.000000000000000000e+00 -2.790007466876288336e-04 1.639987297138169027e-04 0.000000000000000000e+00 -2.790007466876288336e-04 1.639987297138169027e-04 0.000000000000000000e+00 -2.790007466876288336e-04 1.639987297138169027e-04 0.000000000000000000e+00 -3.019983609201171886e-04 -3.600013749995444761e-04 0.000000000000000000e+00 -3.019983563671262291e-04 -3.610013749995340921e-04 0.000000000000000000e+00 -3.029983609201068046e-04 -3.600013795525354898e-04 0.000000000000000000e+00 1.610027226869370281e-04 -5.979992669622541607e-04 0.000000000000000000e+00 1.610027226869370281e-04 -5.979992669622541607e-04 -9.999999999999999547e-07 1.610027272399280147e-04 -5.989992669622437767e-04 0.000000000000000000e+00 -1.580027682168779108e-04 6.079992806211234700e-04 0.000000000000000000e+00 -1.580027636638869242e-04 6.069992806211338540e-04 9.999999999999999547e-07 -1.590027636638765402e-04 6.069992760681428403e-04 0.000000000000000000e+00 3.069983563670743631e-04 3.610013977644889981e-04 0.000000000000000000e+00 3.069983518140833494e-04 3.620013977644786682e-04 0.000000000000000000e+00 3.069983563670743631e-04 3.610013977644889981e-04 0.000000000000000000e+00 2.820007284756338435e-04 -1.599987160548854248e-04 1.999999999999999909e-06 2.810007284756442275e-04 -1.599987206078764114e-04 -9.999999999999999547e-07 2.810007284756442275e-04 -1.599987206078764114e-04 0.000000000000000000e+00 -9.499983745723737357e-04 -3.570043253377302929e-04 0.000000000000000000e+00 -9.499983745723737357e-04 -3.570043253377302929e-04 0.000000000000000000e+00 -9.509983791253543654e-04 -3.560043298907316365e-04 0.000000000000000000e+00 -6.280016345172525355e-04 3.589971407179439215e-04 0.000000000000000000e+00 -6.270016390702538248e-04 3.599971452709245512e-04 0.000000000000000000e+00 -6.280016390702434408e-04 3.599971407179335375e-04 0.000000000000000000e+00 -1.619979875763079638e-04 -4.420007375799574613e-04 9.999999999999999547e-07 -1.609979875763183478e-04 -4.420007330269664476e-04 -9.999999999999999547e-07 -1.609979830233273612e-04 -4.430007330269560635e-04 0.000000000000000000e+00 6.330016163052367773e-04 -3.549971179530304975e-04 0.000000000000000000e+00 6.330016208582277910e-04 -3.559971179530200592e-04 0.000000000000000000e+00 6.330016163052367773e-04 -3.549971179530304975e-04 0.000000000000000000e+00 -1.570045575423431887e-04 1.000999285170041039e-03 0.000000000000000000e+00 -1.580045575423328318e-04 1.000999280617050026e-03 -9.999999999999999547e-07 -1.580045575423328318e-04 1.000999280617050026e-03 9.999999999999999547e-07 -5.989992715152346820e-04 -1.600027272399383717e-04 0.000000000000000000e+00 -5.979992715152450660e-04 -1.600027226869473850e-04 0.000000000000000000e+00 -5.979992715152450660e-04 -1.600027226869473850e-04 0.000000000000000000e+00
-1.064999999999999974e-02 -1.151350000000000012e-01 3.220400000000000346e-02 3.559570000000000234e-01 -1.805829999999999935e-01 2.273599999999999927e-02 1.454149999999999887e-01 -5.745820000000000372e-01 -9.043999999999999956e-03 -2.194730000000000014e-01 1.353300000000000058e-01 -1.253529999999999922e-01 1.462769999999999904e-01 -9.061900000000000510e-02 2.966670000000000140e-01 -1.649249999999999883e-01 -2.212349999999999872e-01 -1.345149999999999957e-01 -1.969650000000000012e-01 -2.526849999999999929e-01 -1.129769999999999941e-01 -3.920910000000000228e-01 -9.413399999999999546e-02 -1.013099999999999938e-02 -3.086459999999999759e-01 -1.178700000000000025e-01 9.941999999999999449e-02 -2.375289999999999901e-01 -1.422970000000000068e-01 2.545899999999999899e-02 -1.626519999999999910e-01 1.454590000000000050e-01 -1.227430000000000049e-01 -2.695640000000000258e-01 1.226200000000000068e-01 2.120609999999999995e-01 -1.027610000000000051e-01 -8.934699999999999587e-02 2.647700000000000053e-02 -9.469299999999999939e-02 -2.443349999999999966e-01 1.164729999999999932e-01 -3.272550000000000181e-01 2.078859999999999875e-01 -4.522899999999999837e-02 -1.064869999999999983e-01 -4.529500000000000193e-02 2.509000000000000119e-02 -2.539159999999999751e-01 1.093950000000000061e-01 1.282699999999999986e-02 -9.669800000000000617e-02 -7.612719999999999487e-01 -5.036199999999999705e-02 2.797569999999999779e-01 -8.182899999999999896e-02 4.606699999999999684e-02 -1.743319999999999870e-01 -9.844899999999999485e-02 -7.014299999999999702e-02 -2.320540000000000103e-01 1.984500000000000153e-02 -8.294799999999999396e-02 -1.868710000000000093e-01 1.224269999999999942e-01 2.838900000000000104e-02 -2.524859999999999882e-01 -3.854960000000000053e-01 1.277349999999999874e-01 -8.356800000000000339e-02 -5.507929999999999771e-01 -1.125170000000000059e-01 5.558199999999999946e-02 4.726000000000000166e-03 -4.316500000000000198e-02 5.396999999999999714e-02 -4.754849999999999910e-01 9.586000000000000770e-03 6.576000000000000248e-03 -1.941420000000000090e-01 -1.311599999999999919e-02 2.488009999999999944e-01 3.183329999999999771e-01 3.921000000000000180e-02 9.344800000000000328e-02 8.645200000000000107e-02 -1.200799999999999958e-02 1.166739999999999999e-01 3.382789999999999964e-01 2.782099999999999851e-02 2.980369999999999964e-01 5.011320000000000219e-01 6.233600000000000252e-02 1.764200000000000143e-02 1.922149999999999970e-01 -1.815150000000000097e-01 1.046580000000000010e-01 7.227699999999999403e-02 5.882699999999999735e-02 3.693500000000000255e-02 -1.420690000000000008e-01 -1.922510000000000052e-01 2.074580000000000035e-01 3.858119999999999883e-01 1.670030000000000125e-01 -3.324699999999999878e-02 2.154949999999999921e-01 4.485600000000000004e-02 1.595519999999999994e-01 -2.064419999999999866e-01 -1.105209999999999942e-01 3.809649999999999981e-01 -5.283000000000000369e-03 1.107329999999999981e-01 -1.871220000000000105e-01 5.942899999999999849e-01 -1.754830000000000001e-01 4.827389999999999737e-01 2.515629999999999811e-01 -1.010289999999999938e-01 2.249140000000000028e-01 1.392760000000000109e-01 2.023000000000000059e-03 -3.933400000000000091e-02 -1.052860000000000046e-01 1.427869999999999973e-01 -7.584699999999999775e-02 1.358379999999999865e-01 -9.448199999999999654e-02 8.175100000000000422e-02 2.324289999999999967e-01 1.220800000000000010e-02 -2.947500000000000120e-02 1.236100000000000046e-02 5.880999999999999943e-03 1.467759999999999898e-01 9.553399999999999392e-02 -2.705239999999999867e-01 -4.394790000000000085e-01 -2.525640000000000107e-01 2.397910000000000041e-01 -5.124200000000000282e-02 2.105529999999999902e-01 1.744400000000000117e-02 8.550099999999999367e-02 3.506310000000000260e-01 -5.666800000000000309e-02 1.214400000000000063e-01 -9.686100000000000265e-02 2.044449999999999878e-01 1.548299999999999954e-01 1.859299999999999842e-02 -1.357669999999999988e-01 2.746799999999999936e-02 2.882299999999999862e-01 3.268499999999999878e-02 3.227530000000000121e-01 4.661569999999999880e-01 8.231999999999999734e-03 1.306360000000000021e-01 1.735099999999999976e-01 1.974000000000000060e-03 -1.965989999999999960e-01 2.086439999999999961e-01 2.665999999999999967e-03 -2.349179999999999879e-01 -3.207470000000000043e-01 -7.225399999999999878e-02 -6.438299999999999579e-02 -1.123999999999999999e-01 2.286300000000000138e-02 -4.904180000000000206e-01 -4.372860000000000080e-01 -1.794999999999999938e-03 -8.643900000000000194e-02 -1.484739999999999949e-01 5.547300000000000147e-02 -3.836699999999999833e-02 -2.255199999999999982e-01 -5.115700000000000108e-02 1.753560000000000119e-01 -2.975510000000000099e-01 1.280999999999999917e-01 -1.446520000000000028e-01 -2.873800000000000243e-01 4.574399999999999994e-02 4.116159999999999819e-01 -8.288600000000000134e-02 -1.164270000000000027e-01 -3.326899999999999996e-02 -1.640699999999999936e-01 -1.967700000000000005e-02 2.266549999999999954e-01 1.098370000000000041e-01 -1.608289999999999997e-01 4.441099999999999909e-02 -4.085969999999999880e-01 -9.260100000000000275e-02 -2.124959999999999904e-01 -1.245180000000000037e-01 1.060610000000000025e-01 -2.718700000000000006e-01 -3.666400000000000214e-02 -7.834099999999999397e-02 -4.408900000000000319e-02 -3.538939999999999864e-01 -4.340399999999999814e-02 -2.513549999999999951e-01 -1.156579999999999969e-01 5.251399999999999818e-02 -3.839500000000000135e-01 -3.349779999999999980e-01 -1.946630000000000027e-01 -1.999259999999999926e-01 -5.602599999999999941e-02 -1.023889999999999939e-01 -2.782749999999999946e-01 -2.063669999999999949e-01 -3.706500000000000072e-02 5.631699999999999900e-02 -5.606569999999999609e-01 -2.164870000000000128e-01 -6.378599999999999548e-02 -2.666970000000000174e-01 -1.885999999999999829e-02 -2.608880000000000088e-01 -2.836400000000000032e-01 1.770269999999999899e-01 8.697599999999999776e-02 2.989089999999999803e-01 -1.054670000000000052e-01 -1.793160000000000032e-01 -2.761999999999999872e-02 9.409599999999999909e-02 2.477389999999999870e-01 -4.108100000000000085e-01 -1.097390000000000032e-01 -2.432539999999999980e-01 -1.112289999999999945e-01 -1.281140000000000057e-01 -2.020609999999999906e-01 -2.461170000000000024e-01 -5.369199999999999667e-02 -5.900999999999999995e-02 3.782599999999999851e-02 6.223499999999999865e-02 -2.314999999999999784e-03 2.462439999999999907e-01 -1.587200000000000069e-02 -2.744600000000000165e-02 2.835019999999999762e-01 1.466610000000000136e-01 9.726999999999999535e-02 -9.611000000000000099e-02 -6.737500000000000433e-02 1.516530000000000100e-01 2.782859999999999778e-01 -3.367970000000000130e-01 1.507880000000000054e-01 1.466169999999999973e-01 1.226389999999999980e-01 1.211200000000000054e-01 1.015630000000000005e-01 9.903099999999999403e-02 2.726930000000000187e-01 2.467040000000000066e-01 -1.399410000000000098e-01 7.568500000000000227e-02 3.238150000000000195e-01 6.591900000000000537e-02 -1.563849999999999962e-01 1.556859999999999911e-01 -4.789700000000000207e-02 -4.436199999999999866e-02 -1.829199999999999923e-02 6.407599999999999407e-02 4.334850000000000092e-01 -1.651340000000000030e-01 -8.729199999999999460e-02 -7.693300000000000138e-02 1.327599999999999961e-02 2.376850000000000074e-01 -4.751500000000000168e-02 2.311699999999999866e-02 -9.580099999999999727e-02 2.133440000000000059e-01 4.361099999999999977e-01 1.088729999999999976e-01 1.732740000000000113e-01 6.482699999999999574e-02 1.620800000000000018e-02 3.286109999999999864e-01 -1.343519999999999992e-01 2.487479999999999969e-01 -2.618900000000000047e-02 3.404550000000000076e-01 -7.496600000000000485e-02 1.062639999999999973e-01 2.790279999999999982e-01 -1.799999999999999951e-03 8.769899999999999918e-02 1.772320000000000007e-01 7.269899999999999973e-02 1.377889999999999948e-01 3.247059999999999946e-01 8.622199999999999309e-02 4.236989999999999923e-01 -2.168999999999999921e-03 -8.868099999999999594e-02 9.930899999999999450e-02 5.340829999999999744e-01 4.582200000000000162e-02 2.838939999999999797e-01 2.603199999999999958e-01 1.365659999999999930e-01 -1.103129999999999944e-01 1.305699999999999916e-01 2.453400000000000025e-01 7.266799999999999649e-02 2.576849999999999974e-01 3.959900000000000225e-02 1.953169999999999906e-01 3.342399999999999816e-01 7.956199999999999384e-02
-5.738149999999999640e-01 4.907360000000000055e-01 -4.503599999999999964e-02 -4.887710000000000110e-01 8.294139999999999846e-01 -1.085249999999999965e-01 -6.861699999999999744e-02 6.287939999999999641e-01 -5.592300000000000049e-02 -1.453250000000000097e-01 3.945370000000000266e-01 -2.694999999999999913e-03 -1.460789999999999866e-01 7.706089999999999884e-01 -9.929999999999999938e-02 -3.254560000000000231e-01 3.893579999999999819e-01 -2.900900000000000006e-02 -1.860630000000000062e-01 8.377200000000000202e-01 -4.154200000000000254e-02 -6.794679999999999609e-01 3.819330000000000225e-01 1.434169999999999889e-01 -8.360599999999999976e-02 4.534420000000000117e-01 -1.050569999999999976e-01 -7.425299999999999956e-02 5.312710000000000488e-01 -1.783200000000000063e-02 -1.072500000000000016e-02 7.503180000000000405e-01 1.132250000000000062e-01 -2.868490000000000206e-01 6.543750000000000400e-01 -8.665799999999999892e-02 1.824100000000000027e-02 7.098550000000000137e-01 -1.648399999999999865e-02 4.603999999999999759e-02 2.149729999999999974e-01 -6.118099999999999927e-02 -2.233320000000000027e-01 5.661690000000000333e-01 1.165899999999999923e-02 -2.865460000000000229e-01 3.897630000000000261e-01 -3.496500000000000302e-02 -1.504510000000000014e-01 6.085949999999999971e-01 -1.545580000000000009e-01 -2.862709999999999977e-01 7.235540000000000305e-01 -1.347399999999999987e-02 2.857000000000000164e-03 4.757500000000000062e-01 -2.735999999999999890e-02 -1.920999999999999965e-03 3.035030000000000228e-01 -5.578500000000000125e-02 -2.238310000000000022e-01 6.248019999999999685e-01 4.224200000000000177e-02 -1.180240000000000039e-01 3.585659999999999958e-01 2.567300000000000137e-02 -2.136409999999999976e-01 6.434450000000000447e-01 1.327300000000000008e-02 -2.320939999999999948e-01 3.006530000000000036e-01 -1.914079999999999948e-01 -5.446640000000000370e-01 6.551550000000000429e-01 1.915930000000000133e-01 -2.166740000000000055e-01 3.677690000000000126e-01 -3.055300000000000030e-02 -3.600360000000000227e-01 2.145110000000000072e-01 -8.633000000000000049e-03 2.269720000000000071e-01 -8.807369999999999921e-01 8.079899999999999582e-02 1.516280000000000128e-01 -9.737160000000000259e-01 1.614569999999999894e-01 5.164570000000000549e-01 -4.546149999999999913e-01 -3.692399999999999849e-02 5.921509999999999829e-01 -5.266009999999999858e-01 -3.798800000000000093e-02 1.443550000000000111e-01 -8.633800000000000363e-01 2.108609999999999929e-01 4.583960000000000257e-01 -1.894899999999999918e-01 -1.056259999999999977e-01 5.239400000000000307e-02 -5.116509999999999669e-01 3.849600000000000244e-02 -1.462410000000000099e-01 -8.282009999999999650e-01 7.173200000000000409e-02 2.033280000000000087e-01 -8.977619999999999489e-01 -1.271110000000000018e-01 2.789590000000000125e-01 -7.651520000000000543e-01 -1.164100000000000031e-02 7.239500000000000102e-02 -6.435020000000000184e-01 1.500450000000000117e-01 2.075200000000000100e-01 -6.814029999999999809e-01 4.342100000000000126e-02 2.310109999999999941e-01 -5.315220000000000500e-01 4.558100000000000346e-02 5.072299999999999726e-02 -9.538210000000000299e-01 -5.119000000000000286e-03 -5.470599999999999768e-02 -9.807780000000000387e-01 5.254299999999999943e-02 4.672049999999999814e-01 -6.656859999999999999e-01 5.259799999999999892e-02 3.920950000000000268e-01 -6.977200000000000069e-01 -4.469599999999999962e-02 3.081740000000000035e-01 -2.897799999999999820e-01 1.033670000000000005e-01 2.716649999999999898e-01 -8.066569999999999574e-01 1.324700000000000009e-02 1.723429999999999962e-01 -6.226190000000000335e-01 6.719700000000000673e-02 6.560100000000000653e-02 -4.654490000000000016e-01 -9.274599999999999511e-02 -2.071060000000000123e-01 -6.740720000000000045e-01 2.739899999999999974e-02 4.686389999999999723e-01 -1.523440000000000072e-01 9.436899999999999455e-02 4.301639999999999908e-01 -4.744979999999999754e-01 -8.959000000000000297e-02 2.358310000000000128e-01 -2.290709999999999968e-01 5.140200000000000324e-02 2.506260000000000154e-01 -4.974529999999999785e-01 1.191099999999999971e-02 2.736930000000000196e-01 -3.123279999999999945e-01 -7.946400000000000685e-02 -2.855820000000000025e-01 6.001180000000000403e-01 -1.113490000000000035e-01 -1.392130000000000034e-01 1.075736999999999943e+00 -1.517590000000000050e-01 -2.081870000000000109e-01 1.030945999999999918e+00 -1.246099999999999985e-02 -4.786009999999999986e-01 8.333660000000000512e-01 -2.561000000000000082e-02 2.213800000000000143e-02 1.165778999999999899e+00 -1.917359999999999898e-01 1.885799999999999976e-02 6.998560000000000336e-01 1.828180000000000083e-01 -3.001010000000000066e-01 8.037809999999999677e-01 6.942099999999999660e-02 -1.267429999999999946e-01 7.653839999999999533e-01 -1.102429999999999938e-01 -2.502690000000000192e-01 3.593859999999999832e-01 -2.257500000000000132e-02 -4.185289999999999844e-01 6.618410000000000126e-01 -2.692599999999999855e-02 -3.329469999999999930e-01 8.741590000000000193e-01 -4.928899999999999948e-02 -3.376600000000000157e-01 5.409829999999999917e-01 1.091199999999999982e-02 -7.178600000000000259e-02 9.270479999999999832e-01 4.346699999999999869e-02 -6.160470000000000113e-01 4.665210000000000190e-01 4.012999999999999901e-02 -3.675510000000000166e-01 6.336509999999999643e-01 -3.581600000000000061e-02 -4.153200000000000225e-01 5.709239999999999871e-01 -8.498500000000000498e-02 -6.205140000000000100e-01 1.005611999999999950e+00 -2.005499999999999991e-02 -2.953790000000000027e-01 8.044149999999999912e-01 -1.790599999999999831e-02 -1.715109999999999968e-01 4.713829999999999965e-01 -5.512700000000000239e-02 -3.143079999999999763e-01 6.254089999999999927e-01 -1.876559999999999895e-01 -2.412849999999999995e-01 2.343169999999999975e-01 5.138999999999999818e-02 -2.396649999999999892e-01 8.755600000000000049e-01 2.945199999999999901e-02 -2.923069999999999835e-01 7.994280000000000275e-01 -2.367900000000000005e-01 -5.939950000000000507e-01 7.341250000000000275e-01 -4.201300000000000173e-02 4.223099999999999771e-02 6.436960000000000459e-01 1.054199999999999998e-01 7.229599999999999915e-02 5.702730000000000299e-01 8.483799999999999675e-02 -2.720040000000000235e-01 5.758799999999999475e-01 5.514000000000000151e-02 2.997540000000000204e-01 -6.163250000000000117e-01 2.869400000000000076e-02 5.520969999999999489e-01 -9.889449999999999630e-01 2.219369999999999954e-01 1.515259999999999940e-01 -5.668630000000000058e-01 2.101099999999999843e-02 -8.982199999999999906e-02 -8.621130000000000182e-01 4.522000000000000325e-02 -2.976200000000000026e-02 -5.715500000000000025e-01 -2.631899999999999865e-02 2.555180000000000229e-01 -6.656370000000000342e-01 7.264400000000000024e-02 5.791960000000000441e-01 -6.681890000000000329e-01 -1.283600000000000019e-02 5.143729999999999691e-01 -9.926030000000000131e-01 -1.031239999999999934e-01 1.127399999999999930e-02 -4.325269999999999948e-01 1.064390000000000058e-01 5.072539999999999827e-01 -3.648759999999999781e-01 -8.703000000000000666e-03 1.282619999999999871e-01 -2.417549999999999977e-01 1.346970000000000112e-01 2.287889999999999924e-01 -6.513170000000000348e-01 9.168800000000000561e-02 3.712719999999999909e-01 -5.077500000000000346e-01 -5.433400000000000035e-02 1.819850000000000079e-01 -6.771220000000000017e-01 3.091800000000000104e-02 4.611179999999999723e-01 -6.574250000000000371e-01 -7.583299999999999763e-02 6.913999999999999313e-02 -7.697190000000000420e-01 2.754399999999999904e-02 4.687629999999999852e-01 -8.214709999999999512e-01 -1.191200000000000071e-02 4.108419999999999850e-01 -7.840439999999999632e-01 1.712269999999999903e-01 1.453000000000000081e-03 -2.781170000000000031e-01 3.722099999999999714e-02 3.704899999999999860e-02 -5.898930000000000007e-01 -1.030700000000000019e-02 2.743570000000000175e-01 -5.861250000000000071e-01 9.879999999999999893e-02 1.317689999999999972e-01 -1.035164999999999891e+00 -2.177370000000000139e-01 3.217070000000000207e-01 -4.270979999999999777e-01 1.185689999999999938e-01 2.047940000000000038e-01 -5.044159999999999755e-01 5.791600000000000220e-02 5.282059999999999533e-01 -5.580220000000000180e-01 -1.741499999999999992e-01 2.186730000000000063e-01 -5.553190000000000071e-01 1.588479999999999892e-01 1.894899999999999918e-01 -6.747490000000000432e-01 -1.943500000000000089e-02