5.669734716999999868e+00 -4.143733305971584981e-25 0.000000000000000000e+00 2.834867443435244994e+00 4.910134251499999714e+00 0.000000000000000000e+00 2.834867466153414117e+00 1.636711457770393396e+00 4.629318973333332643e+00
5.773041991999999567e+00 0.000000000000000000e+00 0.000000000000000000e+00 2.846183565000000026e+00 4.983882508999999850e+00 0.000000000000000000e+00 2.913800591000000217e+00 1.715864842000000001e+00 4.724709737999999604e+00
5.580118270999999908e+00 0.000000000000000000e+00 0.000000000000000000e+00 2.808192296000000088e+00 4.958179256000000201e+00 0.000000000000000000e+00 2.702531388000000145e+00 1.785287150999999906e+00 4.620173374000000166e+00
5.704344426999999662e+00 0.000000000000000000e+00 0.000000000000000000e+00 2.826074444000000074e+00 4.923946621999999884e+00 0.000000000000000000e+00 2.751551297999999868e+00 1.744609424000000075e+00 4.676085100999999966e+00
5.788190162000000250e+00 0.000000000000000000e+00 0.000000000000000000e+00 3.000313445000000190e+00 4.772173340000000152e+00 0.000000000000000000e+00 2.941448401999999795e+00 1.594941989999999921e+00 4.741499820999999670e+00
5.657268050999999964e+00 0.000000000000000000e+00 0.000000000000000000e+00 2.881390183999999799e+00 4.938449186999999796e+00 0.000000000000000000e+00 2.801226050999999995e+00 1.557618160000000085e+00 4.541691229000000440e+00
5.550977726000000168e+00 0.000000000000000000e+00 0.000000000000000000e+00 2.773918801000000212e+00 4.974147043000000323e+00 0.000000000000000000e+00 2.776052404000000084e+00 1.776203470000000006e+00 4.582959780999999566e+00
5.723815734999999627e+00 0.000000000000000000e+00 0.000000000000000000e+00 2.943666395999999796e+00 4.857361741000000066e+00 0.000000000000000000e+00 2.837336520000000029e+00 1.668804256999999902e+00 4.518842859000000267e+00
5.681246954999999765e+00 0.000000000000000000e+00 0.000000000000000000e+00 2.979241733999999919e+00 4.960820199999999680e+00 0.000000000000000000e+00 2.909231022000000166e+00 1.684373029000000077e+00 4.727931718999999866e+00
5.676606424000000040e+00 0.000000000000000000e+00 0.000000000000000000e+00 2.768382353999999879e+00 4.985327189000000381e+00 0.000000000000000000e+00 2.822258258999999825e+00 1.588684629000000070e+00 4.621144822999999846e+00
5.806638288000000259e+00 0.000000000000000000e+00 0.000000000000000000e+00 3.036784771000000216e+00 4.934851025999999585e+00 0.000000000000000000e+00 2.840930183999999858e+00 1.693467035000000065e+00 4.601772990999999813e+00
5.727004765000000219e+00 -2.242579642974133427e-24 0.000000000000000000e+00 2.863502467435245169e+00 4.959731567499999549e+00 0.000000000000000000e+00 2.863502491153414375e+00 1.653243897713202459e+00 4.676079770999999496e+00
5.891898113999999964e+00 0.000000000000000000e+00 0.000000000000000000e+00 2.873412902000000102e+00 4.946854078000000321e+00 0.000000000000000000e+00 2.908007695999999864e+00 1.533728242000000019e+00 4.633004904999999951e+00
5.885816886999999831e+00 0.000000000000000000e+00 0.000000000000000000e+00 2.952642690999999875e+00 4.860453856000000350e+00 0.000000000000000000e+00 2.853937487000000051e+00 1.574047379000000024e+00 4.580748379000000092e+00
5.839179039000000238e+00 0.000000000000000000e+00 0.000000000000000000e+00 3.005006746999999923e+00 5.099371423000000014e+00 0.000000000000000000e+00 3.037125403000000112e+00 1.731814946000000077e+00 4.789940063999999609e+00
5.759808322999999675e+00 0.000000000000000000e+00 0.000000000000000000e+00 2.838772035999999943e+00 5.093751879000000038e+00 0.000000000000000000e+00 2.765527662000000220e+00 1.616490135999999911e+00 4.666806377000000339e+00
5.763704376999999823e+00 0.000000000000000000e+00 0.000000000000000000e+00 3.021917103999999910e+00 4.835075840000000014e+00 0.000000000000000000e+00 2.893933473000000145e+00 1.703836989000000024e+00 4.541467877999999736e+00
5.829277693999999954e+00 0.000000000000000000e+00 0.000000000000000000e+00 2.984599003000000028e+00 4.970010803000000088e+00 0.000000000000000000e+00 2.910613310000000009e+00 1.689745537000000075e+00 4.813532043999999566e+00
5.716657850999999901e+00 0.000000000000000000e+00 0.000000000000000000e+00 2.785109847000000194e+00 4.842983826000000214e+00 0.000000000000000000e+00 2.893182523000000117e+00 1.751305915000000102e+00 4.584949585999999577e+00
5.709944851999999571e+00 0.000000000000000000e+00 0.000000000000000000e+00 2.935993369999999825e+00 4.950808162999999595e+00 0.000000000000000000e+00 2.885253811000000113e+00 1.611786050000000081e+00 4.721925446000000193e+00
5.692220913999999965e+00 0.000000000000000000e+00 0.000000000000000000e+00 2.985156348999999931e+00 5.074860046000000402e+00 0.000000000000000000e+00 2.949951275000000095e+00 1.562415227000000018e+00 4.691968210999999833e+00
5.670925676999999610e+00 0.000000000000000000e+00 0.000000000000000000e+00 2.692606288999999986e+00 4.880063763999999971e+00 0.000000000000000000e+00 2.855981706000000120e+00 1.572837929000000079e+00 4.593359399999999759e+00
5.784274812999999682e+00 -1.089977722895347310e-24 0.000000000000000000e+00 2.892137492301270374e+00 5.009328882999999344e+00 0.000000000000000000e+00 2.892137516258585617e+00 1.669776335741797846e+00 4.722840568666666350e+00
5.703965583999999645e+00 0.000000000000000000e+00 0.000000000000000000e+00 2.987331548999999864e+00 4.985521438000000138e+00 0.000000000000000000e+00 2.900891281999999904e+00 1.801073187000000075e+00 4.660972854999999804e+00
5.890515948000000002e+00 0.000000000000000000e+00 0.000000000000000000e+00 2.987862713999999809e+00 4.906248577000000388e+00 0.000000000000000000e+00 2.842376881999999938e+00 1.566174120999999975e+00 4.583469183000000058e+00
5.902188418999999797e+00 0.000000000000000000e+00 0.000000000000000000e+00 3.070616989999999991e+00 5.029013838000000014e+00 0.000000000000000000e+00 3.097033629999999871e+00 1.804528007000000045e+00 4.657170020999999771e+00
5.953243469000000232e+00 0.000000000000000000e+00 0.000000000000000000e+00 3.005236741000000045e+00 5.062682625999999964e+00 0.000000000000000000e+00 2.917099751999999935e+00 1.574859728999999930e+00 4.805569688000000284e+00
5.865836041999999750e+00 0.000000000000000000e+00 0.000000000000000000e+00 2.925506082000000063e+00 5.084442725999999801e+00 0.000000000000000000e+00 2.966207003000000064e+00 1.645605004000000093e+00 4.833167247000000444e+00
5.687870742000000313e+00 0.000000000000000000e+00 0.000000000000000000e+00 2.994261626000000120e+00 5.145598324999999917e+00 0.000000000000000000e+00 2.961863477000000078e+00 1.820752734999999900e+00 4.707600167999999918e+00
5.838145052999999862e+00 0.000000000000000000e+00 0.000000000000000000e+00 2.820944750999999862e+00 5.100578287000000266e+00 0.000000000000000000e+00 2.890964631000000118e+00 1.615399427000000054e+00 4.584787122999999909e+00
5.910933286999999758e+00 0.000000000000000000e+00 0.000000000000000000e+00 2.924720010999999786e+00 5.031541784999999933e+00 0.000000000000000000e+00 3.014846168000000048e+00 1.752503839999999924e+00 4.805902586000000198e+00
5.672397912000000098e+00 0.000000000000000000e+00 0.000000000000000000e+00 2.891183834000000008e+00 5.024672608000000373e+00 0.000000000000000000e+00 2.885481693000000014e+00 1.616233051000000032e+00 4.692650575000000046e+00
5.615628059999999699e+00 0.000000000000000000e+00 0.000000000000000000e+00 2.863322559999999850e+00 4.895565879000000287e+00 0.000000000000000000e+00 2.842897955000000199e+00 1.625767318999999933e+00 4.600029091999999764e+00
6.130009731000011897e+00 2.899425779557408736e-23 5.166407666262752100e-23 3.065005384807613975e+00 5.308743821999983403e+00 1.819989200579213506e-23 3.065005374800831017e+00 1.769581485594581727e+00 5.005131648666655053e+00
5.965968368000000410e+00 0.000000000000000000e+00 0.000000000000000000e+00 2.894145035000000199e+00 5.173522102999999817e+00 0.000000000000000000e+00 2.870940377999999793e+00 1.872665134000000009e+00 5.086092999999999975e+00
5.967912337999999650e+00 0.000000000000000000e+00 0.000000000000000000e+00 2.918662895000000201e+00 5.371058073000000377e+00 0.000000000000000000e+00 2.995464779000000188e+00 1.929749208999999910e+00 5.092467566999999917e+00
5.994293963999999697e+00 0.000000000000000000e+00 0.000000000000000000e+00 3.001468652999999875e+00 5.337932104000000066e+00 0.000000000000000000e+00 2.862876932999999902e+00 1.890034921000000034e+00 4.962234344999999713e+00
6.281671672999999956e+00 0.000000000000000000e+00 0.000000000000000000e+00 3.066368763999999913e+00 5.412478721000000270e+00 0.000000000000000000e+00 3.085485639999999918e+00 1.784696813999999909e+00 5.122671089999999872e+00
6.266953489999999682e+00 0.000000000000000000e+00 0.000000000000000000e+00 3.278874088999999881e+00 5.299330426000000038e+00 0.000000000000000000e+00 3.307601324000000176e+00 1.852579785000000090e+00 4.933589485999999802e+00
6.190794662000000059e+00 0.000000000000000000e+00 0.000000000000000000e+00 3.228361352999999934e+00 5.313964816000000368e+00 0.000000000000000000e+00 3.047188516999999930e+00 1.705466938000000043e+00 5.090109522999999747e+00
6.192386970000000268e+00 0.000000000000000000e+00 0.000000000000000000e+00 3.059807263999999805e+00 5.288021968999999878e+00 0.000000000000000000e+00 3.211045710000000053e+00 1.774917308000000027e+00 5.144327861999999918e+00
6.024420487999999629e+00 0.000000000000000000e+00 0.000000000000000000e+00 2.944777413000000177e+00 5.165130161999999636e+00 0.000000000000000000e+00 2.916601891000000002e+00 1.714221341000000010e+00 4.932791600999999915e+00
6.188987900999999958e+00 0.000000000000000000e+00 0.000000000000000000e+00 2.944516248999999863e+00 5.197333052000000286e+00 0.000000000000000000e+00 3.132155632999999995e+00 1.719158667000000085e+00 4.895532887999999971e+00
6.209568273000000360e+00 0.000000000000000000e+00 0.000000000000000000e+00 3.196843266000000128e+00 5.375716993000000166e+00 0.000000000000000000e+00 3.086157266999999926e+00 1.938697730999999980e+00 5.151247857999999624e+00
6.191929021000011524e+00 2.484261841479511215e-23 -2.829794775241486207e-24 3.095965035405690013e+00 5.362367497499983315e+00 -9.824199830379963044e-24 3.095965025299849405e+00 1.787456045037390640e+00 5.055688534333321549e+00
6.232202755000000316e+00 0.000000000000000000e+00 0.000000000000000000e+00 3.210857327999999900e+00 5.293081397999999993e+00 0.000000000000000000e+00 3.231665188000000022e+00 1.653206868000000052e+00 5.091141037999999952e+00
6.065655299000000333e+00 0.000000000000000000e+00 0.000000000000000000e+00 3.092439836000000053e+00 5.280679145999999768e+00 0.000000000000000000e+00 3.023582720999999918e+00 1.708262286000000074e+00 4.967368221000000084e+00
6.198169664999999995e+00 0.000000000000000000e+00 0.000000000000000000e+00 3.242844969000000077e+00 5.220536386000000029e+00 0.000000000000000000e+00 3.267592300000000005e+00 1.799062861999999985e+00 4.960595788000000006e+00
6.313710112999999957e+00 0.000000000000000000e+00 0.000000000000000000e+00 3.298711466999999953e+00 5.409225079999999686e+00 0.000000000000000000e+00 3.232236107999999941e+00 1.858512023000000069e+00 4.937247827000000200e+00
6.033107818999999594e+00 0.000000000000000000e+00 0.000000000000000000e+00 2.862804559000000193e+00 5.498813561999999600e+00 0.000000000000000000e+00 2.986171351999999946e+00 1.891790472000000056e+00 5.133738954000000021e+00
6.097772301000000006e+00 0.000000000000000000e+00 0.000000000000000000e+00 3.137438420000000061e+00 5.507480532999999845e+00 0.000000000000000000e+00 3.162331379999999914e+00 1.910700206000000012e+00 4.935373120999999585e+00
6.071557267000000202e+00 0.000000000000000000e+00 0.000000000000000000e+00 3.088895399000000097e+00 5.226634630999999587e+00 0.000000000000000000e+00 3.069208061999999959e+00 1.728718283999999938e+00 5.173207595000000047e+00
6.259620709000000005e+00 0.000000000000000000e+00 0.000000000000000000e+00 3.003649647000000034e+00 5.355025583999999839e+00 0.000000000000000000e+00 3.121185558000000082e+00 1.877902753000000091e+00 5.031894948999999784e+00
6.184134268000000212e+00 0.000000000000000000e+00 0.000000000000000000e+00 3.007145606999999998e+00 5.313560728999999760e+00 0.000000000000000000e+00 3.198043043000000196e+00 1.799574726999999985e+00 5.117484906999999694e+00
6.082941736000000432e+00 0.000000000000000000e+00 0.000000000000000000e+00 3.027557638999999856e+00 5.221158646000000125e+00 0.000000000000000000e+00 2.888384666999999961e+00 1.652703590000000000e+00 5.093528229000000351e+00
6.253848311000010263e+00 7.412623815463788133e-23 4.855545219367707248e-23 3.126924686003766496e+00 5.415991171999981368e+00 -1.137851206485517555e-23 3.126924674798867709e+00 1.805330605480198747e+00 5.106245418999987962e+00
6.259567403000000141e+00 0.000000000000000000e+00 0.000000000000000000e+00 3.119575166999999816e+00 5.493899018999999662e+00 0.000000000000000000e+00 3.226830741000000113e+00 1.908559450000000046e+00 5.252559934999999847e+00
6.141814512999999920e+00 0.000000000000000000e+00 0.000000000000000000e+00 2.983998284000000112e+00 5.307074281000000227e+00 0.000000000000000000e+00 3.174121233999999792e+00 1.873542806999999977e+00 5.045905162000000388e+00
6.124548488000000290e+00 0.000000000000000000e+00 0.000000000000000000e+00 2.931595299000000043e+00 5.453127846000000112e+00 0.000000000000000000e+00 2.993847398000000215e+00 1.717762162999999953e+00 5.056340210000000113e+00
6.251068333000000088e+00 0.000000000000000000e+00 0.000000000000000000e+00 3.095011224999999921e+00 5.428409058999999814e+00 0.000000000000000000e+00 3.100360554999999962e+00 1.883633823000000040e+00 4.982413142999999600e+00
6.374107290000000425e+00 0.000000000000000000e+00 0.000000000000000000e+00 3.327702068999999874e+00 5.359736181999999793e+00 0.000000000000000000e+00 3.286507339999999999e+00 1.699162359000000011e+00 5.020643209000000162e+00
6.400013179000000108e+00 0.000000000000000000e+00 0.000000000000000000e+00 3.113043636000000003e+00 5.556121432000000304e+00 0.000000000000000000e+00 3.217856015999999819e+00 1.839485626999999957e+00 5.043456699000000043e+00
6.393361582999999904e+00 0.000000000000000000e+00 0.000000000000000000e+00 3.282185994999999856e+00 5.294979725000000137e+00 0.000000000000000000e+00 3.316260327000000174e+00 1.668415691999999950e+00 5.158260074000000195e+00
6.196253503000000329e+00 0.000000000000000000e+00 0.000000000000000000e+00 3.114797154000000123e+00 5.578097779000000145e+00 0.000000000000000000e+00 3.016678108999999885e+00 1.884053168999999972e+00 5.074852669000000205e+00
6.345912065000000268e+00 0.000000000000000000e+00 0.000000000000000000e+00 3.323916425000000174e+00 5.390294273000000302e+00 0.000000000000000000e+00 3.094167190999999928e+00 1.661365961000000002e+00 4.983314626000000302e+00
6.134631781000000394e+00 0.000000000000000000e+00 0.000000000000000000e+00 3.027206511999999794e+00 5.501407060000000016e+00 0.000000000000000000e+00 3.086747304000000192e+00 1.985508301999999947e+00 5.158894152000000233e+00
