2.834870024147154499e+00 1.636709980567576661e+00 1.157329968333316916e+00 4.252300051223903310e+00 2.455069978452807611e+00 3.471989952499996424e+00 4.252300045364801662e+00 4.091779968317608152e+00 1.157329945333336330e+00 5.669730072441463875e+00 4.910129966202839036e+00 3.471989929500059802e+00 5.669730024147154879e+00 1.636709956067640137e+00 1.157329943833380614e+00 7.087170051223903755e+00 2.455069953952784712e+00 3.471989927999973968e+00 7.087170045364802107e+00 4.091779943817585696e+00 1.157329920833313652e+00 8.504600072441462544e+00 4.910129941702816581e+00 3.471989905000037346e+00 5.669730096588704527e+00 6.546849971270438218e+00 4.629319922333356097e+00 4.252300069511956160e+00 5.728489973385207712e+00 2.314659938166676145e+00 4.252300075371056920e+00 4.091779983520406283e+00 4.629319945333336683e+00 2.834870048294308553e+00 3.273419985635176221e+00 2.314659961166656732e+00 8.504600096588704972e+00 6.546849946770415762e+00 4.629319897833332753e+00 7.087170069511956605e+00 5.728489948885185257e+00 2.314659913666653246e+00 7.087170075371057365e+00 4.091779959020383828e+00 4.629319920833313340e+00 5.669730048294309377e+00 3.273419961135239475e+00 2.314659936666720430e+00
2.881320000000000103e+00 1.677699999999999969e+00 1.178509999999999946e+00 4.340320000000000178e+00 2.532999999999999918e+00 3.543680000000000163e+00 4.306339999999999613e+00 4.166739999999999888e+00 1.180860000000000021e+00 5.761569999999999858e+00 5.038070000000000270e+00 3.551210000000000200e+00 5.782049999999999912e+00 1.683429999999999982e+00 1.176779999999999937e+00 7.227009999999999934e+00 2.532599999999999962e+00 3.543219999999999814e+00 7.191799999999999748e+00 4.164439999999999920e+00 1.185119999999999951e+00 8.649869999999999948e+00 5.024720000000000297e+00 3.543620000000000214e+00 1.152861000000000047e+01 6.695179999999999687e+00 4.724219999999999864e+00 1.007311999999999941e+01 5.838809999999999611e+00 2.363500000000000156e+00 7.198299999999999699e+00 2.495229999999999837e+00 2.520000000000000104e-03 2.881409999999999805e+00 3.349200000000000177e+00 2.361439999999999984e+00 5.801339999999999719e+00 1.716350000000000042e+00 4.724070000000000213e+00 4.340720000000000134e+00 8.618599999999999595e-01 2.360669999999999824e+00 7.218309999999999782e+00 4.211509999999999643e+00 4.724499999999999922e+00 5.778380000000000294e+00 3.340689999999999937e+00 2.349149999999999849e+00
2.756609999999999783e+00 1.696080000000000032e+00 1.158379999999999965e+00 4.133869999999999933e+00 2.583769999999999900e+00 3.463029999999999831e+00 4.171879999999999811e+00 4.158780000000000143e+00 1.153370000000000006e+00 5.529849999999999710e+00 5.057940000000000325e+00 3.462899999999999867e+00 5.572350000000000136e+00 1.700749999999999984e+00 1.156749999999999945e+00 6.917889999999999873e+00 2.580080000000000151e+00 3.457629999999999981e+00 6.974140000000000228e+00 4.158879999999999910e+00 1.164879999999999916e+00 8.318059999999999121e+00 5.057710000000000150e+00 3.465549999999999908e+00 5.513270000000000337e+00 6.738179999999999836e+00 4.610610000000000319e+00 1.356440000000000090e+00 9.006800000000000361e-01 2.311789999999999790e+00 4.108839999999999826e+00 4.264599999999999724e+00 4.619589999999999641e+00 8.331469999999999487e+00 3.377060000000000173e+00 2.309820000000000206e+00 5.604610000000000092e+00 4.957889999999999908e+00 8.089999999999999969e-03 4.138560000000000016e+00 8.955499999999999572e-01 2.311970000000000081e+00 4.204769999999999897e+00 2.477980000000000071e+00 1.103999999999999947e-02 5.554000000000000270e+00 3.362509999999999888e+00 2.319770000000000110e+00
2.806770000000000209e+00 1.675659999999999927e+00 1.173529999999999962e+00 4.186499999999999666e+00 2.552610000000000046e+00 3.497219999999999995e+00 4.231419999999999959e+00 4.134689999999999976e+00 1.171010000000000106e+00 5.607619999999999827e+00 4.998520000000000074e+00 3.505570000000000075e+00 5.659699999999999953e+00 1.655419999999999892e+00 1.162369999999999903e+00 7.040519999999999889e+00 2.536300000000000221e+00 3.500490000000000101e+00 7.091750000000000220e+00 4.133539999999999992e+00 1.170129999999999892e+00 8.471349999999999270e+00 5.012970000000000148e+00 3.507800000000000029e+00 8.523659999999999570e+00 4.922649999999999970e+00 2.480000000000000000e-03 4.203140000000000320e+00 5.783689999999999998e+00 2.334709999999999841e+00 1.413350000000000106e+00 2.460360000000000102e+00 2.400000000000000061e-04 2.797959999999999781e+00 3.335259999999999891e+00 2.333860000000000046e+00 5.687920000000000087e+00 4.918230000000000324e+00 1.192999999999999963e-02 4.230360000000000120e+00 8.735300000000000287e-01 2.338589999999999947e+00 4.260320000000000107e+00 2.464599999999999902e+00 1.479999999999999979e-03 5.642269999999999897e+00 3.338389999999999969e+00 2.333079999999999821e+00
2.929069999999999840e+00 1.578770000000000007e+00 1.174260000000000081e+00 4.406380000000000408e+00 2.393930000000000113e+00 3.542079999999999895e+00 4.432730000000000281e+00 3.964480000000000004e+00 1.196530000000000094e+00 5.909049999999999692e+00 4.785429999999999851e+00 3.564329999999999998e+00 5.818819999999999659e+00 1.600440000000000085e+00 1.174600000000000088e+00 7.309319999999999595e+00 2.389860000000000095e+00 3.558539999999999814e+00 7.336000000000000298e+00 3.985110000000000152e+00 1.187279999999999891e+00 8.796400000000000219e+00 4.770410000000000039e+00 3.558679999999999843e+00 3.002909999999999968e+00 4.771180000000000199e+00 3.870000000000000176e-03 7.259970000000000034e+00 8.019100000000000117e-01 2.366639999999999855e+00 4.445030000000000037e+00 3.981990000000000141e+00 4.739799999999999791e+00 2.970889999999999809e+00 3.184149999999999814e+00 2.369209999999999816e+00 2.892650000000000166e+00 1.430000000000000064e-03 2.309999999999999987e-03 4.368210000000000370e+00 8.022799999999999931e-01 2.370670000000000055e+00 4.390220000000000233e+00 2.380900000000000016e+00 2.000000000000000042e-03 5.883460000000000356e+00 3.179349999999999898e+00 2.367350000000000065e+00
2.839319999999999844e+00 1.626959999999999962e+00 1.131059999999999954e+00 4.234359999999999680e+00 2.393089999999999939e+00 3.414200000000000124e+00 4.275100000000000122e+00 4.096569999999999823e+00 1.133599999999999941e+00 5.688769999999999882e+00 4.873780000000000001e+00 3.416370000000000129e+00 5.670420000000000016e+00 1.630090000000000039e+00 1.145929999999999893e+00 7.076030000000000264e+00 2.409590000000000121e+00 3.418280000000000207e+00 7.115230000000000388e+00 4.091669999999999696e+00 1.144400000000000084e+00 8.502150000000000318e+00 4.871870000000000367e+00 3.410029999999999895e+00 5.660020000000000273e+00 7.020000000000000198e-03 9.939999999999999183e-03 7.053180000000000227e+00 7.904299999999999660e-01 2.267360000000000042e+00 7.093420000000000059e+00 2.471859999999999946e+00 1.314000000000000064e-02 8.488340000000000884e+00 3.238999999999999879e+00 2.275529999999999831e+00 5.707910000000000039e+00 4.938839999999999897e+00 4.619999999999999975e-03 7.113450000000000273e+00 5.711809999999999832e+00 2.271970000000000045e+00 7.060950000000000060e+00 4.018099999999999561e+00 4.536220000000000141e+00 5.666249999999999787e+00 3.245569999999999844e+00 2.269229999999999858e+00
2.778109999999999857e+00 1.686129999999999907e+00 1.147680000000000033e+00 4.164570000000000327e+00 2.572989999999999888e+00 3.428739999999999899e+00 4.158830000000000027e+00 4.173910000000000231e+00 1.143150000000000110e+00 5.550270000000000259e+00 5.062899999999999956e+00 3.437300000000000022e+00 5.548070000000000057e+00 1.686579999999999968e+00 1.149659999999999904e+00 6.936480000000000423e+00 2.575330000000000119e+00 3.436710000000000154e+00 6.937750000000000306e+00 4.165700000000000180e+00 1.142930000000000001e+00 8.323579999999999757e+00 5.069670000000000343e+00 3.431890000000000107e+00 5.551199999999999690e+00 1.750000000000000036e-03 4.510000000000000120e-03 6.938959999999999795e+00 8.882100000000000550e-01 2.291640000000000121e+00 4.157280000000000086e+00 4.247340000000000337e+00 4.580890000000000128e+00 2.789299999999999891e+00 3.385149999999999881e+00 2.292899999999999938e+00 8.325680000000000192e+00 6.748999999999999666e+00 4.582200000000000273e+00 4.178480000000000416e+00 8.913400000000000212e-01 2.294049999999999923e+00 4.166809999999999903e+00 2.483550000000000146e+00 1.569999999999999998e-03 5.533009999999999984e+00 3.377219999999999889e+00 2.299199999999999910e+00
2.881559999999999899e+00 1.636200000000000099e+00 1.130179999999999962e+00 4.308139999999999858e+00 2.453809999999999825e+00 3.393850000000000033e+00 4.347339999999999982e+00 4.059709999999999930e+00 1.129510000000000014e+00 5.763139999999999930e+00 4.898419999999999774e+00 3.385310000000000041e+00 5.748999999999999666e+00 1.625110000000000054e+00 1.129590000000000094e+00 7.144589999999999996e+00 2.453660000000000174e+00 3.388799999999999812e+00 7.193299999999999805e+00 4.060060000000000002e+00 1.118980000000000086e+00 8.622260000000000701e+00 4.885100000000000442e+00 3.402590000000000003e+00 5.781100000000000350e+00 6.525979999999999670e+00 4.518530000000000157e+00 1.008305000000000007e+01 5.690959999999999575e+00 2.261239999999999917e+00 1.473859999999999948e+00 2.429139999999999855e+00 6.099999999999999737e-04 2.891329999999999956e+00 3.263809999999999878e+00 2.259370000000000100e+00 5.793269999999999698e+00 4.854540000000000077e+00 3.919999999999999873e-03 7.221630000000000216e+00 5.680690000000000239e+00 2.252800000000000136e+00 4.328159999999999563e+00 2.422870000000000079e+00 5.910000000000000323e-03 5.756079999999999863e+00 3.256810000000000205e+00 2.268679999999999808e+00
2.876059999999999839e+00 1.654649999999999954e+00 1.188849999999999962e+00 4.349599999999999689e+00 2.510699999999999932e+00 3.543610000000000149e+00 4.376850000000000129e+00 4.149540000000000006e+00 1.175470000000000015e+00 5.842520000000000380e+00 4.986570000000000391e+00 3.551520000000000010e+00 5.745180000000000398e+00 1.660889999999999977e+00 1.180620000000000003e+00 7.177719999999999878e+00 2.499070000000000125e+00 3.557030000000000136e+00 7.214590000000000281e+00 4.133420000000000094e+00 1.182050000000000045e+00 8.675509999999999167e+00 5.000930000000000319e+00 3.550030000000000019e+00 2.994390000000000107e+00 4.957449999999999690e+00 5.510000000000000141e-03 4.436350000000000016e+00 5.801789999999999559e+00 2.361439999999999984e+00 1.006619000000000064e+01 4.159790000000000099e+00 4.717640000000000278e+00 2.954239999999999977e+00 3.321619999999999795e+00 2.370750000000000135e+00 8.728400000000000603e+00 6.640579999999999927e+00 4.727140000000000342e+00 7.271160000000000068e+00 5.798359999999999737e+00 2.368959999999999955e+00 7.241299999999999848e+00 4.166970000000000063e+00 4.723679999999999879e+00 5.778970000000000162e+00 3.328289999999999971e+00 2.355750000000000011e+00
2.816180000000000128e+00 1.643680000000000030e+00 1.158269999999999911e+00 4.221729999999999983e+00 2.429110000000000102e+00 3.470289999999999875e+00 4.199790000000000134e+00 4.134430000000000049e+00 1.153650000000000064e+00 5.606069999999999887e+00 4.925869999999999749e+00 3.459080000000000155e+00 5.648430000000000284e+00 1.638030000000000097e+00 1.153720000000000079e+00 7.075370000000000381e+00 2.451060000000000016e+00 3.472989999999999799e+00 7.035800000000000054e+00 4.150290000000000035e+00 1.146230000000000082e+00 8.449350000000000804e+00 4.921289999999999942e+00 3.463029999999999831e+00 2.834769999999999790e+00 1.590370000000000061e+00 4.608460000000000001e+00 7.080239999999999867e+00 7.992399999999999505e-01 2.306540000000000035e+00 4.212710000000000399e+00 4.075700000000000323e+00 4.617259999999999920e+00 8.472979999999999734e+00 3.296549999999999869e+00 2.318020000000000191e+00 5.661389999999999922e+00 1.586899999999999977e+00 4.610280000000000378e+00 7.015150000000000219e+00 5.772499999999999964e+00 2.306249999999999911e+00 4.218020000000000103e+00 2.488160000000000149e+00 3.399999999999999811e-03 5.628800000000000026e+00 3.270540000000000003e+00 2.308489999999999931e+00
2.924710000000000143e+00 1.674199999999999910e+00 1.155070000000000041e+00 4.337869999999999671e+00 2.499750000000000139e+00 3.445770000000000000e+00 4.435489999999999711e+00 4.127729999999999677e+00 1.136409999999999920e+00 5.859890000000000043e+00 4.980649999999999800e+00 3.462229999999999919e+00 5.815439999999999721e+00 1.664930000000000021e+00 1.137799999999999923e+00 7.243109999999999715e+00 2.494169999999999998e+00 3.442680000000000184e+00 7.343280000000000030e+00 4.126949999999999896e+00 1.148959999999999981e+00 8.762069999999999581e+00 4.972850000000000215e+00 3.454279999999999795e+00 2.840500000000000025e+00 1.692930000000000046e+00 4.598849999999999660e+00 7.228839999999999932e+00 8.497999999999999998e-01 2.306000000000000050e+00 7.329939999999999678e+00 2.475670000000000037e+00 1.067000000000000066e-02 8.743859999999999744e+00 3.303879999999999928e+00 2.313849999999999962e+00 5.752600000000000158e+00 1.696399999999999908e+00 4.593309999999999782e+00 7.366710000000000313e+00 5.783990000000000187e+00 2.319630000000000081e+00 4.428049999999999820e+00 2.476809999999999956e+00 9.520000000000000684e-03 5.841750000000000220e+00 3.308479999999999865e+00 2.319620000000000015e+00
2.863500024147132450e+00 1.653239980803321130e+00 1.169019968000038157e+00 4.295250051223908905e+00 2.479869979159933013e+00 3.507059952000012082e+00 4.295250045364790381e+00 4.133109968553331903e+00 1.169019944500029329e+00 5.727000072441482459e+00 4.959729966909943499e+00 3.507059928500048329e+00 5.727000024147132606e+00 1.653239956303341529e+00 1.169019943500058556e+00 7.158760051223908683e+00 2.479869954659867926e+00 3.507059927499946994e+00 7.158760045364790159e+00 4.133109944053265927e+00 1.169019919999964241e+00 8.590510072441480460e+00 4.959729942409878412e+00 3.507059903999983685e+00 5.727000096588700018e+00 6.612979972213244295e+00 4.676079921000020789e+00 4.295250069511922675e+00 5.786349973856632189e+00 2.338039937000047086e+00 4.295250075371041198e+00 4.133109984463234632e+00 4.676079944500028951e+00 2.863500048294350009e+00 3.306489986106622148e+00 2.338039960500010395e+00 8.590510096588699795e+00 6.612979947713179207e+00 4.676079896499955701e+00 7.158760069511922453e+00 5.786349949356566214e+00 2.338039912499981998e+00 7.158760075371040976e+00 4.133109959963168656e+00 4.676079919999963863e+00 5.727000048294350165e+00 3.306489961606642325e+00 2.338039936000030572e+00
2.908760000000000012e+00 1.607529999999999903e+00 1.152069999999999927e+00 4.375729999999999897e+00 2.396459999999999813e+00 3.466559999999999864e+00 4.353410000000000224e+00 4.095329999999999693e+00 1.159159999999999968e+00 5.809890000000000221e+00 4.856449999999999712e+00 3.470559999999999867e+00 5.855170000000000208e+00 1.631569999999999965e+00 1.169810000000000016e+00 7.319119999999999848e+00 2.385829999999999895e+00 3.473790000000000155e+00 7.305250000000000021e+00 4.096379999999999910e+00 1.157329999999999970e+00 8.757619999999999294e+00 4.857440000000000424e+00 3.477129999999999832e+00 5.891779999999999795e+00 1.200000000000000030e-04 1.700000000000000122e-04 4.330729999999999968e+00 5.709819999999999673e+00 2.306999999999999940e+00 1.023564000000000007e+01 4.006420000000000314e+00 4.632539999999999658e+00 2.885470000000000201e+00 3.234410000000000007e+00 2.309029999999999916e+00 5.816139999999999866e+00 4.943019999999999747e+00 4.270000000000000358e-03 7.271829999999999572e+00 5.707620000000000360e+00 2.320209999999999884e+00 7.303209999999999980e+00 4.002510000000000012e+00 4.627139999999999809e+00 5.836170000000000080e+00 3.239910000000000068e+00 2.316100000000000048e+00
2.925829999999999931e+00 1.610130000000000061e+00 1.142700000000000049e+00 4.358909999999999840e+00 2.379579999999999806e+00 3.439379999999999882e+00 4.397120000000000140e+00 4.036059999999999981e+00 1.142460000000000031e+00 5.830829999999999735e+00 4.827280000000000015e+00 3.451060000000000016e+00 5.866889999999999716e+00 1.612170000000000103e+00 1.144079999999999986e+00 7.278929999999999900e+00 2.396380000000000177e+00 3.441190000000000193e+00 7.344859999999999722e+00 4.024359999999999715e+00 1.140169999999999906e+00 8.767030000000000101e+00 4.836179999999999701e+00 3.430289999999999839e+00 5.889960000000000306e+00 7.150000000000000105e-03 6.009999999999999717e-03 1.439030000000000031e+00 7.915299999999999558e-01 2.292749999999999844e+00 1.021322999999999936e+01 4.005580000000000140e+00 4.579320000000000057e+00 2.904949999999999921e+00 3.202920000000000211e+00 2.277050000000000018e+00 5.793350000000000222e+00 1.574570000000000025e+00 4.578470000000000262e+00 7.333709999999999951e+00 5.640950000000000131e+00 2.305470000000000130e+00 7.273189999999999600e+00 4.006099999999999994e+00 4.578879999999999839e+00 5.835090000000000110e+00 3.230290000000000106e+00 2.298049999999999926e+00
2.968210000000000015e+00 1.697340000000000071e+00 1.191119999999999957e+00 4.488830000000000098e+00 2.580579999999999874e+00 3.588449999999999918e+00 4.461540000000000283e+00 4.260299999999999976e+00 1.212490000000000068e+00 5.991889999999999716e+00 5.125490000000000101e+00 3.590359999999999996e+00 5.891530000000000378e+00 1.706229999999999913e+00 1.197920000000000096e+00 7.411489999999999689e+00 2.577189999999999870e+00 3.593850000000000211e+00 7.386479999999999713e+00 4.268919999999999604e+00 1.186649999999999983e+00 8.912050000000000693e+00 5.122749999999999915e+00 3.595990000000000020e+00 6.041290000000000049e+00 6.828719999999999679e+00 4.789320000000000022e+00 4.523500000000000298e+00 5.950630000000000308e+00 2.398470000000000102e+00 1.037866000000000000e+01 4.288319999999999688e+00 4.783940000000000303e+00 3.030219999999999914e+00 3.409190000000000165e+00 2.401110000000000078e+00 5.932839999999999669e+00 5.098600000000000243e+00 4.309999999999999595e-03 7.443240000000000300e+00 5.964990000000000236e+00 2.394719999999999960e+00 7.460340000000000416e+00 4.279519999999999769e+00 4.789030000000000342e+00 5.949119999999999742e+00 3.422470000000000123e+00 2.391270000000000007e+00
2.840339999999999865e+00 1.676479999999999970e+00 1.159780000000000033e+00 4.239869999999999806e+00 2.489840000000000053e+00 3.507019999999999804e+00 4.270739999999999981e+00 4.225319999999999965e+00 1.157739999999999991e+00 5.645640000000000214e+00 5.047930000000000028e+00 3.503839999999999844e+00 5.722109999999999808e+00 1.678469999999999906e+00 1.165180000000000105e+00 7.103869999999999685e+00 2.485479999999999912e+00 3.500399999999999956e+00 7.141469999999999985e+00 4.229919999999999902e+00 1.169300000000000006e+00 8.526439999999999131e+00 5.033330000000000304e+00 3.495849999999999902e+00 2.765569999999999862e+00 1.616530000000000022e+00 4.666739999999999888e+00 9.978509999999999991e+00 5.900100000000000122e+00 2.334940000000000015e+00 4.185859999999999914e+00 4.166640000000000121e+00 4.664139999999999731e+00 2.805639999999999912e+00 3.352780000000000094e+00 2.321429999999999882e+00 5.715060000000000251e+00 5.080119999999999969e+00 5.799999999999999600e-03 4.266589999999999883e+00 8.096400000000000263e-01 2.335300000000000153e+00 4.293400000000000105e+00 2.545690000000000008e+00 3.069999999999999812e-03 5.687999999999999723e+00 3.362350000000000172e+00 2.327570000000000139e+00
2.921530000000000182e+00 1.632679999999999909e+00 1.133699999999999930e+00 4.358929999999999971e+00 2.477679999999999882e+00 3.402820000000000178e+00 4.427080000000000126e+00 4.052170000000000272e+00 1.135490000000000110e+00 5.884490000000000443e+00 4.911529999999999951e+00 3.399290000000000145e+00 5.797250000000000014e+00 1.634929999999999994e+00 1.125529999999999919e+00 7.238439999999999763e+00 2.493609999999999882e+00 3.408389999999999809e+00 7.314869999999999983e+00 4.053060000000000329e+00 1.135229999999999961e+00 8.761139999999999262e+00 4.905160000000000409e+00 3.405240000000000045e+00 5.924750000000000405e+00 6.532499999999999751e+00 4.527689999999999770e+00 1.448399999999999910e+00 8.532100000000000239e-01 2.270179999999999865e+00 1.016022000000000070e+01 4.132909999999999862e+00 4.539559999999999818e+00 2.962699999999999889e+00 3.266880000000000006e+00 2.262939999999999952e+00 5.783800000000000274e+00 1.712900000000000089e+00 4.540530000000000399e+00 7.353019999999999889e+00 5.684499999999999886e+00 2.270469999999999988e+00 7.285479999999999734e+00 4.120379999999999932e+00 4.539930000000000021e+00 5.847940000000000360e+00 3.268940000000000179e+00 2.263850000000000140e+00
2.918099999999999916e+00 1.672190000000000065e+00 1.198939999999999895e+00 4.385229999999999961e+00 2.525959999999999983e+00 3.605820000000000025e+00 4.425569999999999560e+00 4.147310000000000052e+00 1.206660000000000066e+00 5.869979999999999976e+00 5.003529999999999589e+00 3.607650000000000023e+00 5.848989999999999689e+00 1.672320000000000029e+00 1.199980000000000047e+00 7.306169999999999831e+00 2.512259999999999938e+00 3.615489999999999871e+00 7.337379999999999569e+00 4.163199999999999790e+00 1.192220000000000057e+00 8.808009999999999451e+00 4.988120000000000331e+00 3.613840000000000163e+00 2.993650000000000144e+00 4.953940000000000232e+00 7.200000000000000453e-04 1.026295000000000002e+01 5.810599999999999987e+00 2.410919999999999952e+00 1.023175999999999952e+01 4.175440000000000040e+00 4.813220000000000276e+00 8.761480000000000601e+00 3.329499999999999904e+00 2.414060000000000095e+00 5.834929999999999950e+00 1.691540000000000044e+00 4.805740000000000123e+00 4.368769999999999598e+00 8.462199999999999722e-01 2.407090000000000174e+00 4.400850000000000151e+00 2.497949999999999893e+00 9.629999999999999671e-03 5.857590000000000074e+00 3.332889999999999908e+00 2.403859999999999886e+00
2.841819999999999791e+00 1.635709999999999997e+00 1.136449999999999960e+00 4.295410000000000394e+00 2.524599999999999955e+00 3.436830000000000052e+00 4.250070000000000014e+00 4.071049999999999613e+00 1.155580000000000052e+00 5.691150000000000375e+00 4.944960000000000022e+00 3.437530000000000197e+00 5.718149999999999622e+00 1.638859999999999983e+00 1.143080000000000096e+00 7.147979999999999556e+00 2.511579999999999924e+00 3.444310000000000205e+00 7.098080000000000389e+00 4.067090000000000316e+00 1.145950000000000024e+00 8.551650000000000418e+00 4.942730000000000068e+00 3.438699999999999868e+00 8.491170000000000329e+00 4.845699999999999896e+00 7.230000000000000315e-03 4.232269999999999754e+00 5.713560000000000194e+00 2.289320000000000022e+00 7.113979999999999748e+00 2.423049999999999926e+00 9.740000000000000394e-03 8.540219999999999700e+00 3.303160000000000096e+00 2.283450000000000202e+00 5.631569999999999965e+00 4.838260000000000005e+00 1.080000000000000057e-02 4.299229999999999663e+00 8.806199999999999584e-01 2.285829999999999806e+00 4.240630000000000344e+00 2.408490000000000020e+00 4.859999999999999737e-03 5.698419999999999597e+00 3.295990000000000197e+00 2.293070000000000164e+00
2.882239999999999913e+00 1.641399999999999970e+00 1.179249999999999909e+00 4.317730000000000068e+00 2.443449999999999900e+00 3.543789999999999996e+00 4.359020000000000117e+00 4.105120000000000324e+00 1.177329999999999988e+00 5.797049999999999592e+00 4.926569999999999894e+00 3.539260000000000073e+00 5.732820000000000249e+00 1.653880000000000017e+00 1.169929999999999914e+00 7.184779999999999944e+00 2.454219999999999846e+00 3.549370000000000136e+00 7.218049999999999855e+00 4.114969999999999573e+00 1.168770000000000087e+00 8.649810000000000443e+00 4.922189999999999621e+00 3.541879999999999917e+00 5.710939999999999905e+00 5.510000000000000141e-03 1.081000000000000016e-02 1.007892999999999972e+01 5.758320000000000327e+00 2.377299999999999969e+00 7.176960000000000228e+00 2.476490000000000080e+00 3.099999999999999999e-04 8.613699999999999690e+00 3.275469999999999882e+00 2.366220000000000212e+00 2.839370000000000172e+00 2.190000000000000106e-03 3.690000000000000138e-03 4.286520000000000330e+00 8.167499999999999760e-01 2.361139999999999795e+00 7.209459999999999980e+00 4.092340000000000089e+00 4.704659999999999620e+00 5.768970000000000375e+00 3.279329999999999856e+00 2.357229999999999936e+00
2.906979999999999897e+00 1.642810000000000104e+00 1.170830000000000037e+00 4.381940000000000168e+00 2.440030000000000143e+00 3.519719999999999960e+00 4.403599999999999959e+00 4.191189999999999749e+00 1.168320000000000025e+00 5.877349999999999852e+00 4.982820000000000249e+00 3.523449999999999971e+00 5.756160000000000387e+00 1.662819999999999965e+00 1.174430000000000085e+00 7.215849999999999653e+00 2.436100000000000154e+00 3.519239999999999924e+00 7.238660000000000316e+00 4.206100000000000172e+00 1.162400000000000100e+00 8.722839999999999705e+00 4.974039999999999573e+00 3.520970000000000155e+00 5.933550000000000324e+00 6.632220000000000226e+00 4.677780000000000271e+00 1.013767999999999958e+01 5.847579999999999778e+00 2.351140000000000008e+00 1.012917000000000023e+01 4.098060000000000258e+00 4.688880000000000159e+00 8.660159999999999414e+00 3.318849999999999856e+00 2.347240000000000215e+00 5.819799999999999862e+00 5.069259999999999877e+00 5.669999999999999693e-03 4.324709999999999610e+00 7.812200000000000255e-01 2.342099999999999849e+00 7.287119999999999820e+00 4.101370000000000182e+00 4.691340000000000288e+00 5.826649999999999885e+00 3.332069999999999865e+00 2.349730000000000096e+00
2.810459999999999958e+00 1.604989999999999917e+00 1.149880000000000013e+00 4.223939999999999806e+00 2.405640000000000001e+00 3.447430000000000216e+00 4.157770000000000188e+00 4.045679999999999943e+00 1.138919999999999932e+00 5.583059999999999690e+00 4.857009999999999827e+00 3.448910000000000142e+00 5.653900000000000148e+00 1.615599999999999925e+00 1.146600000000000064e+00 7.062999999999999723e+00 2.391980000000000217e+00 3.444339999999999957e+00 6.982120000000000104e+00 4.056949999999999612e+00 1.151690000000000103e+00 8.411640000000000228e+00 4.851600000000000357e+00 3.443439999999999834e+00 2.699549999999999894e+00 4.876459999999999795e+00 4.109999999999999938e-03 4.123429999999999929e+00 5.660379999999999967e+00 2.295209999999999972e+00 7.022429999999999950e+00 2.446349999999999802e+00 6.539999999999999807e-03 2.776930000000000121e+00 3.231409999999999894e+00 2.292739999999999778e+00 5.680189999999999628e+00 1.585199999999999942e+00 4.589769999999999683e+00 6.954229999999999912e+00 5.662939999999999863e+00 2.297509999999999941e+00 7.026500000000000412e+00 4.020360000000000156e+00 4.588160000000000238e+00 5.599400000000000155e+00 3.212070000000000203e+00 2.298649999999999860e+00
2.892140024639994866e+00 1.669779980185426504e+00 1.180709967666628168e+00 4.338210052269214856e+00 2.504659978056313019e+00 3.542129951499985996e+00 4.338210046290591038e+00 4.174439967685414032e+00 1.180709944166636660e+00 5.784270073919897115e+00 5.009329965556387876e+00 3.542129928000036898e+00 5.784270024639994290e+00 1.669779955185490383e+00 1.180709942666692269e+00 7.230340052269214723e+00 2.504659953056376676e+00 3.542129926500050097e+00 7.230340046290590905e+00 4.174439942685478577e+00 1.180709919166700761e+00 8.676410073919896604e+00 5.009329940556365379e+00 3.542129903000014846e+00 5.784270098559892048e+00 6.679109970741836655e+00 4.722839920666687341e+00 4.338210070930585971e+00 5.844219972870863700e+00 2.361419936833287103e+00 4.338210076909208901e+00 4.174439983241761354e+00 4.722839944166636883e+00 2.892140049279902314e+00 3.339549985370875440e+00 2.361419960333322354e+00 8.676410098559893314e+00 6.679109945741814158e+00 4.722839895666664844e+00 7.230340070930585838e+00 5.844219947870928245e+00 2.361419911833351204e+00 7.230340076909208769e+00 4.174439958241825899e+00 4.722839919166700540e+00 5.784270049279903070e+00 3.339549960370939541e+00 2.361419935333386455e+00
2.903430000000000177e+00 1.702539999999999942e+00 1.165100000000000025e+00 4.345769999999999911e+00 2.599569999999999936e+00 3.498349999999999849e+00 4.386549999999999727e+00 4.184999999999999609e+00 1.147929999999999895e+00 5.850019999999999776e+00 5.090379999999999683e+00 3.503390000000000004e+00 5.749500000000000277e+00 1.713009999999999922e+00 1.170029999999999903e+00 7.202390000000000292e+00 2.591759999999999842e+00 3.501560000000000006e+00 7.245510000000000339e+00 4.187339999999999840e+00 1.151729999999999920e+00 8.694179999999999353e+00 5.088490000000000180e+00 3.495340000000000114e+00 5.888069999999999915e+00 6.786059999999999981e+00 4.660949999999999704e+00 7.151399999999999757e+00 9.034600000000000408e-01 2.336390000000000189e+00 4.399040000000000283e+00 4.296509999999999607e+00 4.657799999999999940e+00 8.643150000000000333e+00 3.389860000000000095e+00 2.334000000000000075e+00 5.763790000000000191e+00 1.810990000000000100e+00 4.651239999999999597e+00 4.295580000000000176e+00 9.062200000000000255e-01 2.317520000000000024e+00 7.256330000000000169e+00 4.308620000000000339e+00 4.656719999999999970e+00 5.798569999999999780e+00 3.391319999999999890e+00 2.329680000000000195e+00
2.938480000000000203e+00 1.624390000000000001e+00 1.158060000000000089e+00 4.350939999999999586e+00 2.401470000000000216e+00 3.438499999999999890e+00 4.435279999999999667e+00 4.066779999999999617e+00 1.141950000000000021e+00 5.845259999999999678e+00 4.854529999999999568e+00 3.438089999999999868e+00 5.869220000000000326e+00 1.613420000000000076e+00 1.144649999999999945e+00 7.290250000000000341e+00 2.389050000000000118e+00 3.450629999999999864e+00 7.369749999999999801e+00 4.084050000000000402e+00 1.155550000000000077e+00 8.790900000000000603e+00 4.854890000000000150e+00 3.442419999999999813e+00 8.720100000000000406e+00 1.576869999999999994e+00 4.576929999999999943e+00 1.421929999999999916e+00 7.876300000000000523e-01 2.286210000000000075e+00 4.336719999999999686e+00 4.022800000000000153e+00 4.578700000000000436e+00 2.925629999999999953e+00 3.227799999999999780e+00 2.285050000000000026e+00 5.933500000000000441e+00 4.905459999999999710e+00 1.619999999999999912e-03 4.377390000000000114e+00 7.934900000000000286e-01 2.292590000000000128e+00 7.281270000000000131e+00 4.019650000000000389e+00 4.583429999999999893e+00 5.864959999999999951e+00 3.230789999999999829e+00 2.287910000000000110e+00