-1.161956469999999939e+02
-1.163814277999999973e+02
-1.159469599899999963e+02
-1.162368640199999987e+02
-1.158560239400000000e+02
-1.158519254999999930e+02
-1.158117077200000011e+02
-1.156508330999999998e+02
-1.162439731099999989e+02
-1.162098905600000052e+02
-1.161310688399999975e+02
-1.163992143899999974e+02
-1.162065360200000015e+02
-1.159653072899999984e+02
-1.159987413000000060e+02
-1.161733777200000048e+02
-1.156209132299999993e+02
-1.161634811800000051e+02
-1.157830633300000045e+02
-1.163311749300000031e+02
-1.160777590800000070e+02
-1.159106726199999997e+02
-1.163951766899999996e+02
-1.162286270500000001e+02
-1.160533689399999986e+02
-1.159608001099999939e+02
-1.158431859100000025e+02
-1.159076400799999931e+02
-1.160687642799999963e+02
-1.159856552199999982e+02
-1.159755553499999934e+02
-1.162797688099999931e+02
-1.159238696799999957e+02
-1.185425865899999991e+02
-1.175449072600000022e+02
-1.183434477100000066e+02
-1.180847970500000059e+02
-1.187094254600000056e+02
-1.182369532400000054e+02
-1.186612191100000047e+02
-1.186061759300000062e+02
-1.174351171299999947e+02
-1.178706237100000038e+02
-1.186594187799999958e+02
-1.187529730199999989e+02
-1.186290227599999980e+02
-1.181900688500000030e+02
-1.180685843600000027e+02
-1.184292338599999965e+02
-1.184476583900000008e+02
-1.183398081400000024e+02
-1.182421943800000008e+02
-1.186387947599999961e+02
-1.186557986800000037e+02
-1.182293191800000045e+02
-1.187678438100000022e+02
-1.183679178099999945e+02
-1.185527119000000056e+02
-1.185653878699999950e+02
-1.186559451300000063e+02
-1.185629642100000041e+02
-1.183379793799999931e+02
-1.185072358000000037e+02
-1.185163021000000043e+02
-1.185347497399999952e+02
-1.186177119200000050e+02
