-5.000000086423796927e-06 -2.999999987438993594e-06 -6.999999943652004676e-06 4.000000077781416685e-06 1.000000000460072041e-06 7.999999961051781479e-06 3.000000000000000076e-06 3.999999956558065199e-06 -4.000000043441934439e-06 -3.999999974072860864e-06 -9.999999479156856830e-07 4.000000038948217131e-06 4.999999974072861454e-06 9.999999392733060312e-07 -4.000000047590596782e-06 -3.999999991357620167e-06 -2.999999947915685804e-06 4.000000047705615386e-06 -3.000000077781416942e-06 -1.000000009102451693e-06 -7.999999969694161978e-06 4.000000077781416685e-06 2.999999991702674542e-06 5.999999952294384585e-06 -1.000000008642379607e-06 -9.999999913576203029e-07 1.302107856094346426e-14 0.000000000000000000e+00 0.000000000000000000e+00 0.000000000000000000e+00 0.000000000000000000e+00 0.000000000000000000e+00 0.000000000000000000e+00 -1.999999982715240606e-06 2.000000017284759213e-06 8.527361369709020308e-15 0.000000000000000000e+00 0.000000000000000000e+00 0.000000000000000000e+00 9.999999913576203029e-07 -2.000000004263680857e-06 1.000000000115018135e-06 -1.000000008642379607e-06 4.263680835229992140e-15 -9.999999913576203029e-07 1.000000008642379607e-06 -4.263680835229992140e-15 9.999999913576203029e-07
1.225849999999999995e-01 -7.661900000000000654e-02 5.453899999999999720e-02 6.986799999999999955e-02 -3.573699999999999793e-02 -9.729599999999999360e-02 4.406500000000000000e-02 -1.506099999999999973e-02 2.100799999999999890e-02 7.584799999999999875e-02 -1.455829999999999902e-01 -1.568509999999999904e-01 -2.343069999999999875e-01 -1.363280000000000047e-01 9.460999999999999965e-02 -4.450500000000000289e-02 3.892099999999999727e-02 2.110400000000000123e-02 3.047999999999999928e-03 1.560670000000000113e-01 1.953999999999999834e-02 -8.227399999999999991e-02 5.201499999999999874e-02 -5.166400000000000159e-02 7.006700000000000428e-02 1.419759999999999911e-01 1.572099999999999886e-02 7.109500000000000541e-02 -4.814999999999999836e-03 -3.363200000000000217e-02 -6.152999999999999615e-03 -8.983800000000000119e-02 -1.187939999999999968e-01 2.301100000000000020e-02 1.544099999999999986e-02 6.482799999999999674e-02 -5.772299999999999653e-02 2.199800000000000019e-02 -1.457400000000000015e-02 3.360099999999999892e-02 -3.286800000000000138e-02 2.165900000000000117e-02 8.640299999999999370e-02 -3.397100000000000120e-02 -5.171800000000000008e-02 -1.746290000000000064e-01 1.444030000000000036e-01 2.115200000000000136e-01
4.645989999999999842e-01 -3.265669999999999962e-01 -4.267399999999999666e-02 -1.072629999999999972e-01 -2.696109999999999896e-01 1.421600000000000086e-01 1.650210000000000010e-01 1.707609999999999961e-01 -1.196679999999999966e-01 1.305649999999999866e-01 1.126769999999999994e-01 6.781600000000000128e-02 -2.622019999999999906e-01 -3.764350000000000196e-01 -1.575899999999999870e-02 3.167500000000000177e-02 -1.393340000000000134e-01 4.608300000000000174e-01 -1.524540000000000062e-01 4.301479999999999748e-01 -2.843209999999999904e-01 -4.454899999999999832e-02 1.976930000000000076e-01 4.232699999999999657e-02 4.929399999999999754e-02 8.882900000000000518e-02 1.664589999999999959e-01 -1.378330000000000111e-01 -1.845110000000000083e-01 -4.891899999999999721e-02 8.729000000000000647e-03 3.149400000000000116e-02 -5.938199999999999729e-02 1.978340000000000098e-01 -1.336200000000000061e-02 4.780000000000000221e-02 -7.749499999999999444e-02 -1.700000000000000122e-02 -4.364900000000000030e-02 1.033079999999999971e-01 -1.535899999999999939e-02 -1.202600000000000023e-02 -1.951029999999999986e-01 6.915000000000000313e-02 -1.582629999999999870e-01 -1.741240000000000010e-01 2.414260000000000017e-01 -1.427319999999999978e-01
2.437050000000000050e-01 -1.587099999999999900e-01 -1.372770000000000101e-01 2.220300000000000051e-01 -2.429209999999999980e-01 1.898650000000000060e-01 1.485090000000000021e-01 -1.317260000000000097e-01 -1.921839999999999937e-01 1.790690000000000059e-01 -3.595000000000000105e-03 5.303100000000000175e-02 2.502000000000000057e-02 2.295359999999999900e-01 -1.374999999999999920e-03 -1.007999999999999998e-03 1.294410000000000005e-01 1.468750000000000056e-01 -1.567399999999999904e-01 -3.534600000000000242e-02 2.225500000000000048e-02 -2.580660000000000176e-01 -9.541700000000000181e-02 1.420299999999999896e-01 9.659299999999999831e-02 5.910499999999999782e-02 -1.438300000000000134e-01 -5.285499999999999921e-02 2.687919999999999754e-01 3.826000000000000234e-02 -5.441300000000000303e-02 -3.674899999999999695e-02 -1.024699999999999916e-02 -2.351169999999999927e-01 -1.303099999999999918e-02 8.199800000000000144e-02 -2.169379999999999920e-01 1.732710000000000083e-01 -2.820610000000000062e-01 -2.905100000000000043e-02 4.777100000000000096e-02 6.690899999999999626e-02 5.156700000000000172e-02 -3.551300000000000290e-02 -8.383799999999999586e-02 3.769600000000000034e-02 -1.549079999999999901e-01 1.095860000000000029e-01
-1.446209999999999996e-01 7.824399999999999411e-02 1.491540000000000088e-01 1.264830000000000121e-01 -6.233799999999999758e-02 2.205300000000000038e-01 7.132900000000000351e-02 3.461069999999999980e-01 -7.820000000000000562e-02 -1.128099999999999936e-01 -1.423889999999999878e-01 -1.941289999999999960e-01 3.088110000000000022e-01 -1.751969999999999916e-01 1.941529999999999923e-01 -2.065599999999999936e-01 -1.436290000000000067e-01 -1.405389999999999973e-01 -1.293120000000000103e-01 -1.265830000000000011e-01 -3.899899999999999894e-02 1.312879999999999880e-01 2.568750000000000200e-01 -4.780700000000000227e-02 8.347000000000000253e-03 5.336799999999999877e-02 -5.034999999999999892e-02 4.007899999999999657e-02 -1.503909999999999969e-01 7.990099999999999980e-02 -4.895000000000000046e-02 1.504699999999999961e-02 -9.209199999999999331e-02 1.051419999999999993e-01 -3.284200000000000313e-02 2.842000000000000082e-02 3.257000000000000173e-02 -1.363669999999999882e-01 -8.402999999999999359e-02 -2.600099999999999981e-02 -4.309899999999999842e-02 1.866999999999999910e-02 8.556700000000000417e-02 9.492200000000000637e-02 -3.023800000000000099e-02 -2.413639999999999952e-01 1.682710000000000039e-01 6.555600000000000316e-02
-1.521139999999999992e-01 -1.356140000000000123e-01 1.541659999999999975e-01 1.060750000000000026e-01 2.465910000000000046e-01 -9.891700000000000492e-02 1.330500000000000016e-01 1.167200000000000008e-02 2.637249999999999872e-01 -4.007060000000000066e-01 -5.302199999999999969e-02 -2.946070000000000078e-01 -1.543600000000000007e-02 2.560799999999999882e-02 1.510399999999999937e-02 -2.659460000000000157e-01 -2.358570000000000111e-01 -2.456369999999999942e-01 -2.762459999999999916e-01 -1.177500000000000074e-02 -7.970299999999999607e-02 2.468700000000000061e-01 3.878100000000000297e-02 -1.201699999999999990e-02 4.600000000000000004e-05 -1.708189999999999986e-01 -9.703599999999999726e-02 1.744110000000000105e-01 -2.623210000000000264e-01 2.588650000000000118e-01 6.272899999999999310e-02 1.520499999999999977e-02 -3.066690000000000249e-01 3.097460000000000213e-01 1.571259999999999879e-01 2.802699999999999983e-02 5.548700000000000160e-02 -5.985499999999999848e-02 -2.710299999999999862e-02 -6.854499999999999482e-02 8.481800000000000450e-02 7.620200000000000584e-02 1.732269999999999921e-01 2.204490000000000061e-01 2.224029999999999896e-01 -8.264699999999999824e-02 1.290139999999999898e-01 1.431989999999999930e-01
-4.860099999999999837e-02 -1.404000000000000040e-02 -7.687900000000000289e-02 -8.592700000000000338e-02 4.865900000000000086e-02 2.612539999999999862e-01 7.163700000000000623e-02 6.203000000000000180e-02 -3.395700000000000107e-02 -3.332800000000000346e-02 -4.242100000000000037e-02 5.784299999999999858e-02 1.065539999999999959e-01 7.988999999999999574e-03 -1.650500000000000023e-01 8.909499999999999365e-02 5.226000000000000090e-02 3.301199999999999968e-02 -2.681899999999999909e-02 2.292900000000000146e-02 1.490799999999999938e-02 1.200449999999999989e-01 -1.805519999999999903e-01 1.726280000000000037e-01 -5.433500000000000135e-02 -1.256430000000000047e-01 -1.525189999999999879e-01 1.449350000000000083e-01 1.173749999999999932e-01 4.198299999999999949e-02 1.341060000000000030e-01 3.124750000000000028e-01 1.221929999999999961e-01 -4.518510000000000026e-01 -2.232629999999999892e-01 -6.761699999999999655e-02 5.800600000000000200e-02 -3.890699999999999714e-02 8.161400000000000599e-02 -3.883110000000000173e-01 -9.989900000000000169e-02 -3.400500000000000050e-02 -1.414289999999999992e-01 5.838100000000000234e-02 -7.697199999999999875e-02 5.062219999999999498e-01 4.262599999999999723e-02 -1.784360000000000113e-01
-3.173000000000000126e-02 1.188550000000000023e-01 1.338030000000000053e-01 -3.914380000000000082e-01 2.013610000000000122e-01 -2.429090000000000138e-01 -2.054149999999999865e-01 -1.394150000000000111e-01 1.998520000000000019e-01 8.816499999999999337e-02 -7.708299999999999874e-02 6.858899999999999719e-02 -2.176980000000000026e-01 -2.576000000000000165e-02 -5.420999999999999604e-03 3.419920000000000182e-01 2.526700000000000057e-01 -3.620600000000000207e-02 3.948309999999999875e-01 -8.465300000000000602e-02 3.421750000000000069e-01 -5.114500000000000296e-02 -1.723560000000000092e-01 -3.598999999999999977e-01 -4.752800000000000080e-02 -3.286499999999999838e-02 -5.686299999999999688e-02 3.447599999999999970e-02 -5.287200000000000233e-02 1.516499999999999966e-02 -5.592899999999999955e-02 -3.060200000000000073e-02 5.721000000000000391e-03 -1.044600000000000042e-02 -6.766800000000000592e-02 5.900899999999999895e-02 1.346640000000000059e-01 -7.495999999999999885e-02 -1.871499999999999900e-02 4.107500000000000040e-02 1.114060000000000050e-01 1.471760000000000013e-01 1.034680000000000044e-01 3.548400000000000165e-02 -6.619700000000000584e-02 -1.273420000000000107e-01 3.845900000000000013e-02 -1.852800000000000002e-01
3.716599999999999904e-01 2.047690000000000066e-01 2.016499999999999890e-02 -1.580689999999999873e-01 -2.287099999999999897e-02 -1.743780000000000052e-01 -3.481100000000000166e-02 -2.998819999999999819e-01 1.706999999999999906e-01 2.884899999999999964e-02 -6.051999999999999741e-02 -6.161900000000000016e-02 -3.908300000000000107e-01 3.791400000000000325e-02 -2.071900000000000130e-02 2.751399999999999957e-01 2.322919999999999985e-01 -1.080149999999999999e-01 2.168730000000000102e-01 7.989100000000000368e-02 1.896230000000000138e-01 -1.035770000000000024e-01 -3.647299999999999986e-01 -1.621090000000000031e-01 -3.397660000000000124e-01 3.740000000000000269e-02 -5.831999999999999684e-02 -4.057899999999999702e-02 1.227909999999999974e-01 9.881099999999999606e-02 2.920940000000000203e-01 1.052669999999999995e-01 1.942059999999999897e-01 -2.886900000000000022e-01 -2.165900000000000117e-02 -1.545310000000000017e-01 7.485600000000000587e-02 1.568730000000000124e-01 -1.526800000000000032e-02 6.575799999999999701e-02 7.453899999999999415e-02 -1.399990000000000123e-01 -1.204780000000000018e-01 -1.486439999999999984e-01 1.018680000000000002e-01 1.515710000000000113e-01 -1.334299999999999931e-01 1.195869999999999989e-01
-1.579019999999999868e-01 2.663799999999999848e-02 -4.395400000000000001e-02 2.474439999999999973e-01 1.287459999999999993e-01 -1.162549999999999972e-01 8.322499999999999343e-02 7.060000000000000303e-04 5.766399999999999998e-02 -4.030899999999999761e-02 -7.918799999999999450e-02 -1.089900000000000070e-02 2.178930000000000033e-01 1.573090000000000044e-01 1.135270000000000029e-01 -2.584580000000000211e-01 -2.064269999999999994e-01 -2.658739999999999992e-01 -4.041999999999999760e-02 -3.298099999999999921e-01 3.890899999999999914e-02 9.585699999999999776e-02 1.778909999999999936e-01 4.732399999999999801e-02 -2.424350000000000116e-01 -8.687499999999999389e-02 1.803190000000000071e-01 1.638439999999999896e-01 -9.862400000000000333e-02 1.531599999999999975e-02 -8.613400000000000223e-02 1.493130000000000013e-01 8.348099999999999965e-02 -5.600600000000000023e-02 -1.294949999999999990e-01 -1.962409999999999988e-01 3.522399999999999837e-02 -5.987399999999999667e-02 1.903910000000000047e-01 -7.399799999999999434e-02 -2.920999999999999985e-03 -1.463000000000000064e-02 4.854300000000000281e-02 6.809300000000000075e-02 -3.582799999999999874e-02 6.363099999999999312e-02 2.845179999999999931e-01 -4.324900000000000272e-02
-5.855799999999999894e-02 -3.393789999999999862e-01 -1.482699999999999990e-02 2.380460000000000076e-01 1.599170000000000036e-01 1.116990000000000066e-01 2.545009999999999772e-01 1.140219999999999984e-01 4.021109999999999962e-01 -5.465799999999999825e-02 -2.373969999999999969e-01 -2.688679999999999959e-01 2.332819999999999894e-01 -6.444099999999999828e-02 3.449030000000000151e-01 -1.182129999999999986e-01 1.150140000000000051e-01 6.083100000000000313e-02 -1.350719999999999976e-01 3.110100000000000017e-02 1.865970000000000129e-01 1.466880000000000128e-01 1.846400000000000124e-02 -6.864699999999999969e-02 -5.916000000000000252e-03 8.183999999999999608e-02 1.732869999999999966e-01 -3.157399999999999790e-02 -1.427329999999999988e-01 -2.064560000000000006e-01 -8.645500000000000407e-02 -8.337200000000000166e-02 -9.980500000000000482e-02 -9.173999999999999863e-03 2.639349999999999752e-01 -1.708139999999999936e-01 -8.246100000000000652e-02 3.454299999999999732e-02 3.106180000000000052e-01 -1.278239999999999932e-01 -9.054099999999999648e-02 -3.705919999999999770e-01 -9.701899999999999413e-02 -9.483500000000000263e-02 -6.765699999999999492e-02 -6.559099999999999653e-02 2.338619999999999866e-01 -3.223799999999999999e-01
2.999999897328529795e-06 -1.000000003474094026e-05 -1.999999980302509607e-06 1.099999994866426521e-05 -6.000000094115514823e-06 -6.689629948801765534e-14 9.000000000000000228e-06 1.999999913923325540e-06 -2.000000086076673856e-06 1.999999931552352915e-06 -2.000000044331125577e-06 -6.000000008038840030e-06 -2.999999940108308691e-06 1.000000052887081867e-06 6.000000021131331734e-06 -1.000000000000000082e-05 -2.999999900830834002e-06 3.000000099169165726e-06 -1.099999994866426521e-05 6.000000094115514823e-06 6.689629948801765534e-14 -1.999999897328529629e-06 1.000000002618498423e-05 1.999999971746553998e-06 -9.999999999999999547e-07 8.555955902420180533e-15 8.555955824791381255e-15 9.999999999999999547e-07 -8.555955902420180533e-15 -8.555955824791381255e-15 9.999999999999999547e-07 -8.555955902420180533e-15 -8.555955824791381255e-15 2.999999991444044466e-06 9.999999652590609372e-07 -2.000000030204403256e-06 0.000000000000000000e+00 0.000000000000000000e+00 0.000000000000000000e+00 0.000000000000000000e+00 0.000000000000000000e+00 0.000000000000000000e+00 -3.000000000000000076e-06 -1.999999965259060892e-06 2.000000034740938927e-06 0.000000000000000000e+00 0.000000000000000000e+00 0.000000000000000000e+00
1.011549999999999949e-01 1.705049999999999899e-01 6.230600000000000027e-02 -1.946360000000000035e-01 -1.939160000000000050e-01 1.375369999999999926e-01 -1.185680000000000067e-01 -4.815699999999999842e-02 -1.734749999999999903e-01 5.759600000000000136e-02 1.515180000000000138e-01 1.341320000000000012e-01 6.566700000000000315e-02 -2.606999999999999873e-01 -2.641379999999999839e-01 1.273009999999999975e-01 -5.064799999999999858e-02 5.291699999999999876e-02 6.867800000000000293e-02 -1.639099999999999932e-02 -5.557200000000000334e-02 -5.012400000000000189e-02 -1.612099999999999991e-02 -2.880200000000000121e-02 -1.409000000000000009e-02 -7.095999999999999877e-03 -2.830600000000000130e-02 -9.970299999999999996e-02 5.117599999999999927e-02 1.915709999999999913e-01 3.615000000000000158e-02 2.250200000000000117e-02 -5.855500000000000288e-02 1.085369999999999946e-01 3.800499999999999712e-02 4.102999999999999703e-02 8.061300000000000410e-02 2.718399999999999983e-02 -1.365629999999999900e-01 3.488000000000000128e-02 1.083169999999999966e-01 -3.807100000000000067e-02 -1.855030000000000012e-01 3.197799999999999948e-02 1.114320000000000033e-01 -1.795400000000000121e-02 -8.156000000000000055e-03 5.255699999999999955e-02
-4.045900000000000191e-02 -1.104860000000000009e-01 1.999900000000000011e-01 -2.495149999999999868e-01 3.572580000000000200e-01 -1.072609999999999952e-01 5.800000000000000034e-05 9.662400000000000155e-02 2.739440000000000208e-01 -1.373689999999999911e-01 5.222000000000000253e-02 -2.806690000000000018e-01 4.934600000000000097e-02 -2.203099999999999850e-02 6.348700000000000176e-02 2.733269999999999866e-01 2.415000000000000046e-03 -1.686600000000000044e-01 -9.460000000000000093e-04 2.076790000000000025e-01 2.227210000000000023e-01 1.600129999999999886e-01 -3.618319999999999870e-01 -1.113370000000000054e-01 -8.422699999999999632e-02 -8.773200000000000442e-02 -4.052599999999999952e-02 -1.899909999999999932e-01 -1.862700000000000120e-02 -9.077999999999999264e-03 -3.597500000000000003e-02 -3.784900000000000070e-02 -2.875399999999999831e-02 -6.939999999999999988e-03 2.564339999999999953e-01 2.576010000000000244e-01 1.474080000000000112e-01 1.584800000000000098e-02 1.294069999999999943e-01 -8.742999999999999383e-02 -1.951000000000000043e-03 -3.338130000000000264e-01 3.546900000000000053e-02 -9.144499999999999851e-02 7.066000000000000059e-02 1.672309999999999908e-01 -2.565250000000000030e-01 -1.377120000000000011e-01
4.071999999999999925e-02 1.453280000000000127e-01 4.651999999999999885e-02 2.751100000000000073e-02 -8.226400000000000379e-02 1.352399999999999956e-02 1.043960000000000027e-01 -1.115329999999999933e-01 -1.595699999999999896e-01 7.414400000000000157e-02 -3.625799999999999856e-02 3.914399999999999824e-02 -3.880700000000000122e-02 8.078499999999999570e-02 -4.237000000000000315e-03 4.589000000000000197e-03 3.595999999999999891e-02 -6.115099999999999703e-02 6.193200000000000094e-02 -1.464660000000000128e-01 1.312889999999999890e-01 -8.153900000000000037e-02 -3.739999999999999835e-03 2.035500000000000156e-02 5.490500000000000241e-02 4.604400000000000159e-02 3.213499999999999690e-02 -2.664899999999999908e-02 2.043989999999999974e-01 -9.013699999999999490e-02 2.922200000000000145e-02 -1.443979999999999986e-01 1.121049999999999963e-01 -1.190780000000000033e-01 2.931399999999999978e-02 -7.623900000000000121e-02 -1.428079999999999905e-01 7.718899999999999373e-02 -8.695100000000000051e-02 5.679499999999999826e-02 2.214100000000000096e-02 3.693999999999999801e-03 -4.011999999999999941e-03 2.004299999999999832e-02 3.096000000000000141e-02 -4.132299999999999862e-02 -1.365429999999999977e-01 4.855799999999999700e-02
3.945699999999999902e-02 1.375270000000000103e-01 1.880259999999999987e-01 -2.355579999999999896e-01 5.431899999999999923e-02 -2.373480000000000034e-01 -1.653729999999999922e-01 -8.776200000000000667e-02 2.051050000000000095e-01 -1.940100000000000158e-02 -1.363360000000000127e-01 -8.093300000000000494e-02 -4.461999999999999821e-03 3.039100000000000135e-02 1.590300000000000047e-02 1.136149999999999938e-01 7.930600000000000149e-02 -1.143210000000000059e-01 8.553199999999999692e-02 -1.162529999999999952e-01 5.681200000000000139e-02 4.408999999999999725e-03 -1.495130000000000070e-01 -5.621999999999999914e-02 9.523999999999999480e-03 8.710700000000000387e-02 -2.873799999999999966e-02 5.502200000000000146e-02 7.717499999999999361e-02 -4.021199999999999775e-02 -1.388499999999999977e-02 -9.146300000000000263e-02 -1.721500000000000113e-02 2.709000000000000036e-03 2.354200000000000043e-02 1.944180000000000075e-01 7.706200000000000550e-02 2.252740000000000020e-01 -9.926799999999999513e-02 -2.672000000000000069e-02 3.491500000000000159e-02 -1.659899999999999917e-02 9.932100000000000650e-02 -6.237999999999999795e-02 -1.076590000000000047e-01 -2.125300000000000106e-02 -1.058499999999999996e-01 1.382480000000000098e-01
-1.888509999999999911e-01 9.308900000000000508e-02 -5.373399999999999704e-02 1.817429999999999879e-01 2.634630000000000027e-01 2.915500000000000036e-02 1.328890000000000071e-01 2.744299999999999864e-02 4.964199999999999863e-02 -2.148190000000000099e-01 -1.834469999999999990e-01 3.604700000000000265e-02 1.969370000000000009e-01 2.027999999999999942e-02 1.152040000000000008e-01 1.213540000000000035e-01 -1.460660000000000014e-01 -1.538170000000000093e-01 -1.178500000000000034e-02 -9.802099999999999702e-02 -7.577899999999999914e-02 1.060849999999999987e-01 1.191299999999999998e-02 -1.887000000000000136e-02 -1.295650000000000135e-01 1.817729999999999901e-01 1.967190000000000050e-01 -4.925899999999999723e-02 -8.679999999999999565e-04 -1.052609999999999935e-01 1.612359999999999904e-01 -2.519939999999999958e-01 -5.214799999999999991e-02 -5.362700000000000106e-02 5.954399999999999971e-02 8.956500000000000572e-02 -1.693689999999999918e-01 -7.970700000000000007e-02 -1.725199999999999997e-02 7.377999999999999836e-02 1.504800000000000061e-02 -8.674400000000000166e-02 3.937800000000000328e-02 3.291100000000000275e-02 -2.832600000000000048e-02 -1.961269999999999958e-01 5.464000000000000107e-02 7.560000000000000053e-02
2.664830000000000254e-01 -1.090840000000000004e-01 1.130229999999999985e-01 9.579899999999999527e-02 -4.005139999999999811e-01 -7.187100000000000433e-02 -6.538999999999999674e-03 1.303499999999999971e-02 -1.057820000000000010e-01 3.439650000000000207e-01 -3.777099999999999902e-02 -7.782500000000000528e-02 -2.044930000000000081e-01 -1.055090000000000056e-01 1.741290000000000060e-01 -1.293150000000000133e-01 8.935600000000000487e-02 -4.230600000000000332e-02 -1.217500000000000006e-02 5.887799999999999978e-02 2.573170000000000179e-01 -4.053720000000000101e-01 2.371139999999999914e-01 -1.246570000000000039e-01 -1.183519999999999989e-01 3.261410000000000142e-01 7.402999999999999858e-03 6.064400000000000346e-02 5.797700000000000076e-02 -1.027639999999999942e-01 -4.810600000000000293e-02 -4.517199999999999688e-02 1.248200000000000004e-02 1.167760000000000048e-01 -5.588000000000000085e-03 -5.800999999999999733e-03 -6.946199999999999597e-02 7.226399999999999491e-02 7.702599999999999725e-02 -1.763299999999999937e-02 4.951599999999999752e-02 -6.037200000000000205e-02 1.103309999999999985e-01 -2.184119999999999950e-01 -8.440100000000000380e-02 1.744700000000000070e-02 1.777099999999999860e-02 3.440000000000000002e-02
2.108079999999999954e-01 3.096030000000000171e-01 1.989589999999999970e-01 -1.808309999999999917e-01 -7.355699999999999739e-02 -1.009179999999999938e-01 -2.998970000000000247e-01 -3.105120000000000102e-01 -1.215029999999999999e-01 1.357520000000000115e-01 1.662000000000000066e-03 1.091840000000000033e-01 -3.352289999999999992e-01 1.187150000000000011e-01 3.271799999999999708e-02 1.226740000000000053e-01 2.758039999999999936e-01 -8.891899999999999804e-02 7.535500000000000531e-02 2.285900000000000085e-02 1.571490000000000109e-01 -3.130879999999999774e-01 -1.426199999999999968e-01 2.238000000000000059e-02 2.073419999999999985e-01 -4.918000000000000149e-02 -2.332089999999999996e-01 -4.653100000000000291e-02 2.191900000000000098e-02 1.846029999999999893e-01 -1.521280000000000132e-01 -6.686499999999999388e-02 -2.927580000000000182e-01 2.577639999999999931e-01 -1.332899999999999918e-01 2.723960000000000270e-01 1.083869999999999972e-01 -7.462900000000000089e-02 -2.889820000000000166e-01 7.148200000000000387e-02 -5.521999999999999825e-02 2.243149999999999866e-01 2.140489999999999893e-01 2.368439999999999990e-01 -1.528720000000000079e-01 -7.590800000000000325e-02 -8.153100000000000624e-02 7.745699999999999807e-02
-1.552830000000000044e-01 -1.084549999999999959e-01 1.193789999999999990e-01 1.539200000000000013e-01 4.790900000000000020e-02 -6.701799999999999424e-02 -6.233699999999999658e-02 2.853800000000000225e-01 2.097529999999999950e-01 -1.336199999999999888e-01 -2.667699999999999932e-02 -1.811399999999999955e-01 1.627419999999999978e-01 -1.834689999999999932e-01 3.345060000000000255e-01 -1.912190000000000001e-01 -1.818230000000000124e-01 -2.382090000000000041e-01 -1.909279999999999866e-01 8.471800000000000164e-02 2.271440000000000126e-01 4.112600000000000283e-02 1.544270000000000087e-01 -1.986479999999999912e-01 -7.013400000000000190e-02 -6.017399999999999832e-02 -5.951100000000000140e-02 8.157999999999999974e-02 -3.878299999999999803e-02 -1.699569999999999970e-01 4.559200000000000058e-02 9.535000000000000073e-03 -8.247000000000000858e-03 1.305999999999999939e-01 1.012669999999999959e-01 -1.295409999999999895e-01 2.297230000000000105e-01 8.293999999999999290e-03 9.074000000000000468e-03 1.127070000000000016e-01 -1.270260000000000000e-01 -8.983900000000000219e-02 -6.160199999999999704e-02 -3.365800000000000042e-02 2.401490000000000014e-01 -9.286700000000000510e-02 6.853399999999999770e-02 2.102999999999999835e-03
-6.031600000000000156e-02 3.522850000000000148e-01 1.666330000000000033e-01 -1.672909999999999953e-01 8.412699999999999345e-02 -1.385510000000000075e-01 -2.388959999999999972e-01 -3.668300000000000033e-02 1.872919999999999863e-01 -2.726999999999999910e-02 -7.676700000000000190e-02 -6.724700000000000122e-02 -3.780800000000000133e-02 -4.788200000000000095e-02 -4.320800000000000335e-02 2.620509999999999784e-01 1.329760000000000109e-01 -1.387329999999999952e-01 2.619270000000000209e-01 -2.052019999999999955e-01 2.241039999999999976e-01 -7.291999999999999871e-02 -1.580179999999999918e-01 -1.685129999999999961e-01 -6.846299999999999608e-02 8.295099999999999696e-02 1.683429999999999926e-01 1.692430000000000045e-01 1.190230000000000038e-01 -1.010439999999999949e-01 7.868200000000000194e-02 -3.398199999999999832e-02 1.018059999999999937e-01 5.651999999999999906e-03 -8.803900000000000614e-02 -9.658400000000000318e-02 1.157900000000000040e-01 9.000400000000000067e-02 -8.791100000000000303e-02 -5.241300000000000125e-02 6.388399999999999634e-02 -2.831099999999999936e-02 1.498599999999999932e-02 -8.850099999999999634e-02 6.714699999999999835e-02 -1.829530000000000045e-01 -1.901740000000000097e-01 -4.522299999999999931e-02
-5.100500000000000173e-02 2.863740000000000174e-01 -1.329499999999999953e-02 5.807799999999999768e-02 1.361880000000000035e-01 -1.147360000000000047e-01 -1.403929999999999900e-01 -2.563000000000000174e-03 2.595439999999999969e-01 -1.267050000000000121e-01 -4.217960000000000043e-01 -3.969099999999999712e-02 -1.900840000000000030e-01 -2.165699999999999917e-02 1.618000000000000081e-03 8.974300000000000332e-02 2.937299999999999911e-01 -6.752099999999999769e-02 1.039410000000000056e-01 -1.481500000000000039e-01 7.225199999999999678e-02 2.642800000000000010e-02 -2.847020000000000106e-01 -3.955899999999999694e-02 -2.113810000000000133e-01 2.207349999999999868e-01 -4.885400000000000159e-02 6.117000000000000041e-03 1.024810000000000026e-01 7.236599999999999977e-02 -1.660999999999999976e-01 2.180400000000000046e-02 -1.001439999999999969e-01 -1.247469999999999968e-01 -1.118630000000000041e-01 1.653699999999999892e-01 2.256009999999999960e-01 -2.361719999999999930e-01 4.426299999999999679e-02 3.539400000000000185e-02 7.267800000000000649e-02 -1.009310000000000068e-01 2.693940000000000223e-01 -1.897590000000000110e-01 -1.647699999999999859e-02 1.957190000000000041e-01 2.826730000000000076e-01 -7.420599999999999419e-02
-2.000000051864755618e-06 -8.999999969536329837e-06 3.000000056814504197e-06 -3.000000034576503740e-06 -9.999999947716788811e-06 6.000000069850435775e-06 -2.999999939491118557e-06 1.200000000397334885e-05 -5.000000026769292555e-06 -1.999999887626362682e-06 1.300000001728825167e-05 -3.980522355487403678e-14 1.999999896270488493e-06 -1.300000001289644513e-05 1.000000039805223603e-06 2.999999939491118557e-06 -1.200000000397334885e-05 5.000000026769292555e-06 4.000000025932377673e-06 9.999999934680856885e-06 -7.000000078494561752e-06 2.000000043220629808e-06 8.999999965144524992e-06 -4.000000056814503516e-06 -8.644125947755173475e-15 -9.999999999999999547e-07 4.391805798035210800e-15 0.000000000000000000e+00 0.000000000000000000e+00 0.000000000000000000e+00 1.000000008644125977e-06 -4.252320262404196781e-15 9.999999913558741445e-07 8.644125947755173475e-15 9.999999999999999547e-07 -4.391805798035210800e-15 0.000000000000000000e+00 0.000000000000000000e+00 0.000000000000000000e+00 0.000000000000000000e+00 0.000000000000000000e+00 0.000000000000000000e+00 -2.000000008644125720e-06 1.289644624812269074e-14 -9.999999827117481225e-07 8.644125947755173475e-15 4.391805723314297180e-15 9.999999999999999547e-07
-1.513980000000000048e-01 -1.212020000000000042e-01 1.186829999999999968e-01 8.207499999999999518e-02 3.869500000000000023e-02 -1.394769999999999899e-01 1.492340000000000055e-01 1.961009999999999975e-01 3.924030000000000018e-01 -1.552129999999999899e-01 7.403999999999999991e-03 -3.870770000000000044e-01 1.109799999999999953e-01 -1.816470000000000029e-01 1.254629999999999912e-01 -3.047000000000000056e-02 4.850600000000000050e-02 -2.492699999999999916e-01 -6.727199999999999847e-02 5.483400000000000080e-02 2.845679999999999876e-01 7.807300000000000351e-02 9.199300000000000532e-02 -2.623670000000000169e-01 7.710899999999999699e-02 5.442700000000000315e-02 6.584999999999999708e-03 4.860099999999999837e-02 -8.759200000000000319e-02 -1.481159999999999977e-01 -7.837999999999999481e-03 -3.592800000000000160e-02 6.081899999999999806e-02 7.182700000000000196e-02 9.045999999999999874e-02 -9.597500000000000475e-02 -2.021120000000000139e-01 -9.541900000000000381e-02 1.373510000000000009e-01 1.337700000000000000e-01 -6.900199999999999390e-02 1.720430000000000015e-01 -7.194599999999999607e-02 -1.125420000000000031e-01 5.183900000000000313e-02 -6.542199999999999405e-02 1.209110000000000046e-01 -6.747200000000000419e-02