-5.611170878299999458e+02
-5.611524898100000200e+02
-5.612777350600000545e+02
-5.611790900199999896e+02
-5.613546355700000277e+02
-5.601888131599999952e+02
-5.604593093600000202e+02
-5.606099455700000362e+02
-5.606832910800000036e+02
-5.603930266700000402e+02
-5.603685423599999922e+02
-5.604084498099999792e+02
-5.603573424400000249e+02
-5.602842071100000112e+02
-5.602271448200000350e+02
