-2.398049999999999904e-01 -9.755400000000000182e-02 8.647000000000000172e-03 -1.238110000000000044e-01 -1.115270000000000011e-01 1.169469999999999954e-01 -2.686799999999999952e-02 7.976099999999999857e-02 -2.128999999999999990e-02 6.520900000000000307e-02 1.681050000000000044e-01 -1.130769999999999970e-01 -2.729179999999999939e-01 -1.358449999999999935e-01 2.432300000000000087e-02 -7.164900000000000435e-02 -3.177539999999999809e-01 -1.383479999999999988e-01 -1.704960000000000087e-01 -3.000920000000000254e-01 -2.381700000000000136e-02 1.780359999999999998e-01 -3.101459999999999773e-01 1.400450000000000028e-01 -3.192630000000000190e-01 1.146620000000000000e-01 1.754969999999999863e-01 -8.449600000000000166e-02 -3.025149999999999784e-01 2.745690000000000075e-01 -1.986680000000000113e-01 -6.395800000000000096e-02 -2.760889999999999733e-01 -1.928279999999999994e-01 -2.612659999999999982e-01 6.675100000000000477e-02 -1.010869999999999963e-01 1.510299999999999976e-01 1.620000000000000075e-04 3.040769999999999862e-01 2.199000000000000000e-03 -4.945900000000000296e-02 1.984579999999999955e-01 -1.347300000000000060e-02 3.784499999999999670e-02 8.545300000000000118e-02 3.204879999999999951e-01 -2.443609999999999949e-01 -3.417047999999999863e+00 -1.973430000000000017e+00 -9.015000000000000444e-03 -6.767999999999999711e-03 4.034092000000000233e+00 9.834999999999999992e-03 -3.434953999999999841e+00 -1.919631000000000087e+00 2.422999999999999807e-03 -3.420643000000000100e+00 -1.879415999999999976e+00 -1.466999999999999988e-03 -3.020891999999999911e+00 -1.756364999999999954e+00 -1.379499999999999997e-02 3.191790999999999823e+00 -1.789137999999999895e+00 6.993000000000000084e-03 -2.129199999999999843e-02 -9.686999999999999431e-03 3.372100000000000097e-02 -3.592365000000000030e+00 -2.107050999999999785e+00 -3.281499999999999695e-02 -6.224999999999999631e-03 7.575300000000000089e-02 2.718200000000000130e-02 5.568100000000000133e-02 -3.518037000000000081e+00 -1.413099999999999946e-02 1.862799999999999873e-02 -4.998400000000000065e-02 -7.616199999999999359e-02 -3.127683000000000213e+00 1.822877999999999998e+00 6.119100000000000233e-02 3.201293999999999862e+00 1.797420000000000018e+00 1.203975000000000017e+00 3.294240999999999975e+00 1.846208999999999989e+00 -1.224998000000000031e+00 3.215756999999999977e+00 1.966957000000000066e+00 -1.222096000000000071e+00 3.299090000000000078e+00 1.997438999999999965e+00 1.238795000000000091e+00 3.243564000000000114e+00 1.813209000000000071e+00 1.202968000000000037e+00 -1.116299999999999931e-01 -1.088989999999999958e-01 -9.821889999999999787e-01 -4.159999999999999636e-03 4.564000000000000001e-02 -2.959999999999999958e-03 3.521383999999999848e+00 2.030580000000000052e+00 6.310999999999999770e-03 3.501268000000000047e+00 -2.142487000000000030e+00 -1.472000000000000001e-03 -3.131999999999999802e-03 -4.180483999999999867e+00 7.002999999999999677e-03 -3.377819999999999823e+00 1.894103000000000092e+00 -1.496218000000000048e+00 -2.943799999999999889e-02 3.819773000000000085e+00 1.245691000000000104e+00 6.066699999999999871e-02 -3.751562999999999981e+00 1.459873999999999894e+00 8.776699999999999779e-02 -3.689156999999999798e+00 -1.452579000000000065e+00 -3.029999999999999805e+00 -1.874565999999999955e+00 -5.562000000000000277e-02 -3.072639999999999816e+00 -1.722148999999999930e+00 5.319600000000000023e-02 7.750600000000000545e-02 3.890537999999999830e+00 1.235948999999999964e+00 8.299600000000000033e-02 3.884526999999999841e+00 -1.234242999999999979e+00 2.187999999999999841e-03 -3.565409999999999968e+00 1.478699999999999980e-02 -3.156486999999999821e+00 1.845637999999999890e+00 -1.400799999999999962e-02 -8.900700000000000278e-02 3.695768000000000164e+00 1.432899999999999972e-02 3.118364000000000136e+00 -1.845884999999999998e+00 -1.838700000000000057e-02 3.078771000000000146e+00 1.769498999999999933e+00 3.307700000000000223e-02 -7.120100000000000040e-02 -1.805759999999999865e-01 -2.528400000000000092e-02 -1.041599999999999991e-02 -3.246129999999999849e-01 -1.883200000000000152e-02 -6.020199999999999857e-02 -2.157399999999999873e-01 1.815299999999999900e-02 -2.319599999999999995e-01 6.378650000000000153e-01 -3.945370000000000266e-01 -7.519099999999999395e-02 -9.322359999999999536e-01 -9.244800000000000240e-02 -1.147859999999999991e-01 -3.833210000000000228e-01 4.998670000000000058e-01 -8.045689999999999786e-01 -4.500890000000000168e-01 -6.806999999999999683e-03 -2.997999999999999797e-03 -6.815700000000000092e-01 -4.952039999999999775e-01 -9.312540000000000262e-01 -5.657510000000000039e-01 8.205000000000000487e-03 -2.934050000000000269e-01 3.342410000000000103e-01 4.660400000000000098e-01 -1.777459999999999873e-01 7.422459999999999614e-01 7.348000000000000365e-03 -4.610960000000000059e-01 3.512219999999999787e-01 -4.637680000000000136e-01 -5.101699999999999985e-02 -8.861900000000000333e-02 -4.850899999999999657e-02 6.538509999999999600e-01 5.164100000000000357e-01 6.167199999999999765e-02 -1.355089999999999906e-01 -1.334259999999999891e-01 4.812799999999999717e-02 8.557470000000000354e-01 3.122719999999999940e-01 -5.864899999999999974e-02 6.498530000000000140e-01 4.173939999999999872e-01 -5.104899999999999716e-02 5.154119999999999813e-01 1.745690000000000019e-01 4.664399999999999796e-02 6.888250000000000206e-01 4.218540000000000068e-01 9.621269999999999545e-01 4.916119999999999934e-01 3.491540000000000199e-01 5.080259999999999776e-01 4.079320000000000168e-01 4.299169999999999936e-01 -9.546149999999999913e-01
6.380900000000000460e-02 8.066000000000000253e-03 -1.497699999999999865e-01 2.139800000000000035e-02 -1.866069999999999951e-01 1.120619999999999949e-01 -1.842779999999999974e-01 -1.071430000000000021e-01 1.408560000000000090e-01 5.203699999999999992e-02 5.470599999999999768e-02 -1.145010000000000056e-01 3.641300000000000092e-02 6.346400000000000652e-02 5.225400000000000184e-02 -1.676930000000000087e-01 6.560299999999999465e-02 1.328739999999999921e-01 -8.342499999999999916e-02 -1.076460000000000056e-01 -9.730500000000000260e-02 1.614400000000000002e-01 1.018929999999999975e-01 -4.053039999999999976e-01 1.803599999999999995e-02 5.213399999999999979e-02 1.768129999999999979e-01 -8.399500000000000022e-02 -1.930479999999999974e-01 -4.225999999999999722e-03 3.720600000000000296e-02 -2.141900000000000054e-02 -2.011800000000000047e-02 -1.166139999999999954e-01 2.018620000000000136e-01 2.393740000000000034e-01 -1.815440000000000109e-01 6.874700000000000255e-02 2.648130000000000206e-01 2.608619999999999828e-01 9.624599999999999822e-02 -2.108140000000000014e-01 -1.434100000000000097e-01 1.463500000000000079e-01 -2.332950000000000024e-01 1.042659999999999976e-01 -8.984100000000000419e-02 2.247379999999999933e-01 -3.536100999999999939e+00 -1.961993000000000098e+00 -2.214199999999999849e-02 -3.581043999999999894e+00 2.041755000000000209e+00 1.585299999999999904e-02 -3.283294999999999852e+00 -1.932121999999999895e+00 1.458788999999999891e+00 -3.348176000000000041e+00 -1.959783000000000053e+00 -1.452531000000000017e+00 1.303699999999999998e-02 -1.342600000000000043e-02 1.743986000000000036e+00 -4.686300000000000188e-02 -3.825908999999999782e+00 -1.218023999999999996e+00 -7.391999999999999960e-02 -4.067523999999999695e+00 -1.512000000000000106e-03 3.454077999999999982e+00 2.014075000000000060e+00 -8.321000000000000271e-03 3.151552000000000131e+00 1.908959000000000072e+00 -1.592199999999999865e-02 3.132264999999999855e+00 1.786947000000000063e+00 1.406400000000000011e-02 -3.139942000000000011e+00 1.699043999999999999e+00 -6.475899999999999712e-02 2.345300000000000162e-02 -1.367299999999999939e-02 6.781900000000000428e-02 3.185042000000000151e+00 1.727351999999999999e+00 3.295100000000000112e-02 4.235900000000000082e-02 3.538307000000000091e+00 -3.890699999999999714e-02 -2.052500000000000158e-02 3.902223000000000219e+00 -1.466175000000000006e+00 -2.865499999999999992e-02 4.405599999999999794e-02 1.730714000000000086e+00 3.045656000000000141e+00 -1.784966000000000053e+00 7.368000000000000417e-03 -6.126000000000000369e-03 -3.616407000000000149e+00 -1.693300000000000013e-02 3.542797999999999892e+00 2.004875000000000185e+00 -1.653900000000000162e-02 3.604403000000000024e+00 -1.990048999999999957e+00 2.655199999999999921e-02 3.523858999999999853e+00 1.986744999999999983e+00 1.653999999999999915e-02 -3.365066999999999808e+00 -2.044951000000000185e+00 -1.536000000000000039e-03 3.221146000000000065e+00 1.944757999999999987e+00 -1.418787999999999938e+00 2.819400000000000031e-02 3.852910000000000057e+00 1.181526000000000076e+00 1.526699999999999932e-02 -3.508220000000000116e+00 3.909000000000000148e-03 3.003099999999999867e-02 -3.491826999999999792e+00 9.310000000000000567e-03 -3.042164000000000090e+00 -1.714280999999999944e+00 -6.078000000000000069e-03 -2.433700000000000099e-02 1.618719999999999881e-01 -7.400999999999999593e-03 -3.193503999999999898e+00 1.936539000000000010e+00 -1.436415999999999915e+00 9.524000000000000521e-02 3.812434000000000101e+00 1.183713999999999933e+00 -3.360485999999999862e+00 -2.002390000000000114e+00 1.211106999999999934e+00 -3.361092000000000191e+00 1.815784999999999982e+00 -1.451284999999999936e+00 -3.782999999999999904e-03 3.215799999999999909e-02 -1.274300000000000085e-02 3.363579000000000097e+00 -2.022333000000000158e+00 3.059200000000000114e-02 6.852999999999999717e-03 -2.022799999999999945e-02 2.698400000000000104e-02 -1.143070000000000058e-01 -9.238799999999999790e-02 -2.512500000000000150e-02 -6.985040000000000138e-01 -6.247650000000000148e-01 -6.564399999999999402e-02 -2.806549999999999878e-01 -1.913130000000000108e-01 8.251579999999999471e-01 9.129199999999999815e-02 3.217599999999999905e-01 -3.983030000000000181e-01 8.345600000000000240e-02 -1.003740999999999994e+00 1.114200000000000086e-02 1.385319999999999885e-01 -4.230070000000000219e-01 -3.197999999999999888e-03 6.618610000000000326e-01 1.808329999999999937e-01 6.366099999999999537e-02 -3.456230000000000135e-01 -3.996299999999999852e-02 5.422799999999999843e-01 8.701170000000000293e-01 1.270249999999999990e-01 -6.885399999999999854e-02 -2.669540000000000246e-01 -1.356880000000000031e-01 -5.418789999999999996e-01 -5.958900000000000308e-01 2.424469999999999958e-01 -4.636390000000000233e-01 -2.399280000000000024e-01 4.646429999999999727e-01 4.778290000000000037e-01 -1.786400000000000141e-02 4.392499999999999738e-01 -4.747299999999999853e-01 2.306549999999999989e-01 4.803490000000000260e-01 4.819740000000000135e-01 -6.312459999999999738e-01 -2.055999999999999842e-02 -5.088019999999999765e-01 3.346589999999999843e-01 5.301160000000000316e-01 -4.893339999999999912e-01 -1.648030000000000050e-01 4.394819999999999838e-01 4.267639999999999767e-01 4.784240000000000159e-01 -5.781950000000000145e-01 -4.846099999999999852e-01 9.289799999999999447e-02 -5.219999999999999814e-03 -3.208300000000000041e-02 5.442900000000000515e-01 -4.934009999999999785e-01 4.861159999999999926e-01 -2.865499999999999992e-02 -1.173899999999999944e-02 2.706100000000000172e-02
8.012099999999999778e-02 3.584129999999999816e-01 1.899599999999999900e-01 2.878339999999999788e-01 1.677100000000000118e-02 1.283660000000000079e-01 -3.560710000000000264e-01 3.224029999999999951e-01 -1.725289999999999879e-01 4.046279999999999877e-01 -1.448699999999999988e-02 -1.043430000000000052e-01 3.428999999999999826e-01 -1.589089999999999947e-01 -4.314200000000000257e-01 2.939399999999999999e-02 -2.369800000000000031e-02 1.736860000000000070e-01 2.250919999999999865e-01 1.786500000000000032e-01 -2.359100000000000086e-02 -2.716569999999999818e-01 -4.408499999999999919e-02 4.291579999999999839e-01 -2.687309999999999977e-01 9.935599999999999987e-02 -2.410990000000000077e-01 -2.459669999999999912e-01 -2.171279999999999877e-01 8.023999999999999883e-03 1.207389999999999991e-01 -2.401639999999999886e-01 2.189699999999999980e-01 -2.413329999999999920e-01 -4.134999999999999787e-02 -9.499999999999999764e-03 -1.530670000000000086e-01 1.855380000000000085e-01 -3.970620000000000260e-01 6.755600000000000493e-02 7.182600000000000096e-02 2.142390000000000128e-01 -1.708250000000000046e-01 1.453669999999999962e-01 -1.357309999999999905e-01 1.621680000000000066e-01 3.228899999999999826e-02 1.978209999999999968e-01 -3.440249999999999808e+00 2.052494999999999958e+00 -4.073399999999999938e-02 -9.492499999999999549e-02 3.880103000000000080e+00 4.063200000000000145e-02 -4.567600000000000132e-02 -1.341499999999999984e-02 1.750472000000000028e+00 -9.271300000000000374e-02 -3.846477000000000146e+00 -1.230790000000000051e+00 1.230300000000000005e-01 -3.779866000000000170e+00 1.222877999999999910e+00 3.353378000000000192e+00 1.862624000000000057e+00 -1.243311999999999973e+00 8.753400000000000070e-02 -2.027500000000000135e-02 9.514690000000000092e-01 -3.185604000000000102e+00 -1.978374999999999995e+00 -1.453321000000000085e+00 -3.454026999999999958e+00 1.940391999999999895e+00 -9.407999999999999696e-03 5.479799999999999949e-02 -3.942588999999999899e+00 7.858999999999999667e-03 -8.265999999999999737e-02 -3.507779999999999898e+00 -6.063000000000000334e-02 3.309200000000000336e-02 3.797235000000000138e+00 3.896000000000000157e-02 2.956820000000000004e+00 1.869542000000000037e+00 5.253999999999999990e-03 3.051162000000000152e+00 -1.848127000000000075e+00 -2.417599999999999957e-02 3.319558999999999926e+00 1.751784999999999926e+00 -1.254424999999999901e+00 2.274400000000000033e-02 7.423200000000000631e-02 1.008261000000000074e+00 -2.908099999999999921e-02 -2.328999999999999907e-03 -9.837369999999999726e-01 -3.392411000000000065e+00 1.909999999999999920e+00 1.204426999999999914e+00 3.486151000000000000e+00 1.950267999999999891e+00 1.312800000000000078e-02 3.459516999999999953e+00 -2.032481000000000204e+00 -7.780000000000000457e-04 3.297155000000000058e+00 1.989017999999999953e+00 -1.453756999999999966e+00 -3.439986000000000210e+00 -1.821687000000000056e+00 1.181424000000000030e+00 3.117917999999999967e+00 1.737187000000000037e+00 -2.621199999999999919e-02 -3.079590000000000050e+00 1.670438000000000089e+00 2.289100000000000162e-02 3.574000000000000093e-02 5.845000000000000369e-03 1.702820999999999918e+00 -3.201389999999999958e+00 1.894122000000000083e+00 -1.444925000000000015e+00 8.130700000000000427e-02 -3.786646999999999874e+00 -1.470250999999999975e+00 3.342623999999999818e+00 -1.812966999999999995e+00 1.227616000000000041e+00 -3.359290999999999805e+00 1.902551000000000103e+00 1.481220999999999899e+00 3.903399999999999925e-02 -5.445300000000000140e-02 -9.828040000000000109e-01 -3.162139999999999951e+00 -1.777757000000000032e+00 -4.825100000000000222e-02 -7.206799999999999318e-02 3.679577999999999793e+00 5.824599999999999916e-02 -3.105840000000000156e+00 -1.861116999999999910e+00 1.961200000000000096e-02 9.407899999999999596e-02 3.562000000000000062e-03 -1.718799999999999842e-02 6.704899999999999749e-02 9.117999999999999369e-03 1.020488000000000062e+00 3.299522000000000066e+00 -1.979951999999999934e+00 -1.223821999999999965e+00 1.677210000000000090e-01 -7.893799999999999706e-01 8.747380000000000155e-01 2.027980000000000060e-01 -1.728719999999999979e-01 -3.805540000000000034e-01 -3.182309999999999861e-01 2.780569999999999986e-01 -3.821000000000000178e-03 2.140299999999999842e-02 -1.049319999999999975e-01 5.170799999999999702e-02 8.599999999999999789e-04 8.318529999999999536e-01 1.128999999999999969e-02 -7.468979999999999508e-01 4.246510000000000007e-01 4.404779999999999807e-01 -5.172790000000000443e-01 -1.479999999999999979e-03 -9.176900000000000057e-01 3.842220000000000080e-01 -7.993460000000000010e-01 -4.258629999999999916e-01 -4.544900000000000329e-02 -6.432100000000000317e-02 3.877510000000000123e-01 -2.763809999999999878e-01 -1.392440000000000067e-01 8.980599999999999694e-01 3.236910000000000065e-01 -1.815219999999999889e-01 -4.057560000000000056e-01 6.796410000000000506e-01 -7.636400000000000132e-02 4.302360000000000073e-01 -5.888999999999999790e-02 3.210350000000000148e-01 6.226999999999999896e-03 1.087482000000000060e+00 5.654399999999999704e-02 -4.401010000000000200e-01 -3.701369999999999938e-01 9.507000000000000173e-02 4.568000000000000012e-03 1.870850000000000013e-01 1.070860000000000006e-01 -4.801940000000000097e-01 -4.083010000000000250e-01 1.487680000000000113e-01 -9.103639999999999510e-01 -5.992269999999999541e-01 -4.108570000000000277e-01 9.140329999999999844e-01 -3.912849999999999939e-01 2.498900000000000010e-01 3.653500000000000081e-01 5.798290000000000388e-01 -3.572279999999999900e-01 -4.541810000000000014e-01
-7.924599999999999700e-02 -7.537699999999999956e-02 2.081399999999999917e-02 6.848400000000000321e-02 -2.990530000000000133e-01 -4.348400000000000182e-02 -2.188970000000000082e-01 -4.769199999999999828e-02 -3.055099999999999830e-02 3.684390000000000165e-01 -1.582149999999999945e-01 3.761500000000000260e-02 -1.893150000000000110e-01 4.001400000000000096e-02 2.383400000000000102e-02 -3.903199999999999725e-02 3.965999999999999907e-03 -6.265260000000000273e-01 -2.626450000000000173e-01 1.117600000000000017e-02 1.830400000000000083e-01 -1.985979999999999968e-01 -1.795160000000000089e-01 -4.899999999999999842e-03 -2.314749999999999863e-01 -4.829599999999999865e-02 -2.143799999999999872e-02 -9.133299999999999752e-02 -9.823999999999999400e-02 2.279399999999999829e-02 5.821099999999999886e-02 -1.962399999999999908e-02 -1.509199999999999951e-02 -4.796000000000000263e-02 1.103800000000000059e-01 3.957220000000000182e-01 3.241499999999999937e-02 1.620409999999999906e-01 1.698199999999999987e-01 -1.404299999999999993e-02 3.386299999999999727e-02 -9.837000000000000258e-03 6.730099999999999971e-02 2.418939999999999979e-01 1.814599999999999894e-02 2.863100000000000089e-01 -1.941620000000000013e-01 -1.619819999999999871e-01 -3.465669999999999806e+00 -1.829914999999999958e+00 -4.300000000000000003e-03 -7.598299999999999499e-02 4.056358999999999604e+00 -1.081400000000000070e-02 -2.989965999999999902e+00 -1.725354000000000054e+00 -2.095999999999999946e-02 4.335300000000000264e-02 -3.541831999999999869e+00 4.114999999999999908e-02 9.726700000000000623e-02 -8.066199999999999759e-02 1.749041000000000068e+00 9.959199999999999997e-02 -1.421509999999999996e-01 -9.812929999999999708e-01 -5.617799999999999877e-02 -3.976532999999999873e+00 -7.191999999999999608e-03 -3.504373999999999878e+00 1.975648999999999988e+00 4.643999999999999691e-03 -2.892000000000000039e-03 1.282709999999999961e-01 9.416000000000000758e-03 -8.146799999999999875e-02 -3.472570999999999852e+00 1.343000000000000010e-03 -3.324578999999999951e+00 1.742199000000000053e+00 1.172786000000000106e+00 3.273528999999999911e+00 1.916657000000000055e+00 -1.172754000000000074e+00 3.073258000000000045e+00 1.858505999999999991e+00 1.667499999999999885e-02 3.147791999999999923e+00 -1.781749000000000027e+00 -9.780000000000000498e-03 3.273646999999999974e+00 1.936152000000000095e+00 -1.232871000000000050e+00 8.527800000000000658e-02 6.857499999999999707e-02 9.939869999999999539e-01 3.373990000000000045e+00 1.871472000000000024e+00 -2.022600000000000092e-02 -3.458654999999999813e+00 1.998966999999999938e+00 -5.820000000000000520e-04 3.487661999999999818e+00 -2.029326000000000185e+00 -2.102999999999999835e-03 3.517618000000000134e+00 -1.981214999999999948e+00 3.171000000000000207e-03 4.580000000000000195e-04 3.731866999999999823e+00 -1.165319999999999911e+00 -3.333753999999999884e+00 -1.993546999999999958e+00 1.167721999999999927e+00 -3.902200000000000113e-02 2.973699999999999954e-02 -1.715036000000000005e+00 -3.235236000000000001e+00 1.830275000000000096e+00 1.461357999999999935e+00 7.918200000000000238e-02 -3.914264000000000188e+00 1.448817000000000021e+00 8.565100000000000491e-02 -3.818172999999999817e+00 -1.442951000000000095e+00 -3.434299999999999853e-02 3.594885999999999804e+00 -2.708599999999999897e-02 -7.474999999999999700e-02 3.315999999999999937e-03 9.832999999999999727e-03 6.309099999999999431e-02 1.049759999999999999e-01 -1.720013999999999932e+00 5.791899999999999826e-02 3.898902999999999786e+00 1.181818000000000035e+00 -3.126831000000000138e+00 -1.836087000000000025e+00 7.320000000000000118e-03 -3.226466999999999974e+00 1.900220000000000020e+00 -1.093999999999999920e-03 5.952999999999999958e-03 3.563705999999999818e+00 -3.529800000000000298e-02 3.124896000000000118e+00 1.719302000000000108e+00 1.897199999999999928e-02 -1.526600000000000006e-02 -3.714806999999999970e+00 1.522521000000000013e+00 3.310706000000000149e+00 -1.945878999999999914e+00 -1.252755999999999981e+00 -9.433600000000000319e-02 -3.421859999999999902e-01 -4.441069999999999740e-01 -3.031079999999999885e-01 -8.720290000000000541e-01 4.453840000000000021e-01 -4.151590000000000003e-01 4.556000000000000154e-03 -2.500399999999999845e-02 -3.637900000000000023e-01 1.890400000000000136e-01 1.297331999999999930e+00 -4.715340000000000087e-01 4.710710000000000175e-01 -3.630329999999999946e-01 -2.064050000000000051e-01 -1.054726999999999970e+00 -2.660699999999999871e-02 -2.000000000000000042e-03 -2.676169999999999938e-01 5.974840000000000151e-01 -2.821750000000000091e-01 3.549249999999999905e-01 5.068559999999999732e-01 9.471200000000000452e-02 -4.162660000000000249e-01 -5.933739999999999570e-01 2.929829999999999934e-01 1.656400000000000095e-01 -5.006599999999999939e-01 2.570560000000000067e-01 4.477470000000000061e-01 2.331499999999999892e-02 -9.790000000000000091e-02 6.038750000000000506e-01 -8.161279999999999646e-01 7.575349999999999584e-01 -3.764080000000000203e-01 4.362190000000000234e-01 -3.638449999999999740e-01 -1.137600000000000000e-01 -4.795329999999999870e-01 8.716610000000000191e-01 -8.835099999999999898e-02 -4.517269999999999897e-01 -7.188339999999999730e-01 9.002499999999999392e-02 4.706440000000000068e-01 9.345799999999999941e-02 4.883230000000000071e-01 -4.250639999999999974e-01 6.960269999999999513e-01 8.767369999999999886e-01 -4.517200000000000104e-01 7.479900000000000437e-02 4.786239999999999939e-01 4.598430000000000017e-01 5.168359999999999621e-01 -2.683070000000000177e-01 3.937599999999999989e-01
7.616299999999999459e-02 1.385570000000000135e-01 4.115999999999999867e-03 -4.742899999999999894e-02 -9.467100000000000515e-02 4.036969999999999725e-01 -5.272000000000000297e-02 2.239000000000000105e-03 -3.204300000000000204e-02 -1.093940000000000051e-01 1.366559999999999997e-01 -2.162320000000000075e-01 1.825789999999999913e-01 -2.461790000000000089e-01 1.522950000000000137e-01 -7.210500000000000242e-02 1.422539999999999916e-01 -1.191269999999999968e-01 3.366129999999999955e-01 -8.840000000000000635e-02 -8.640200000000000657e-02 -9.386300000000000199e-02 -9.279000000000000789e-03 1.214820000000000066e-01 -2.458600000000000022e-02 -1.710629999999999928e-01 1.866829999999999878e-01 2.022680000000000033e-01 1.696599999999999844e-02 3.634699999999999737e-02 1.044100000000000063e-02 -9.674000000000000307e-03 -6.236639999999999961e-01 2.625339999999999896e-01 -1.692609999999999948e-01 -1.795130000000000059e-01 6.798600000000000476e-02 1.753899999999999904e-01 -6.459399999999999864e-02 1.754410000000000136e-01 7.191799999999999582e-02 4.142089999999999939e-01 1.531500000000000049e-02 2.049729999999999885e-01 1.992999999999999980e-02 -3.562200000000000089e-02 2.466899999999999996e-02 -5.527300000000000268e-02 -3.491534999999999833e+00 1.995649999999999924e+00 -2.027699999999999989e-02 3.455468999999999902e+00 2.086104000000000180e+00 -1.312999999999999931e-03 -3.305222000000000104e+00 -1.834213000000000093e+00 1.423923000000000050e+00 -3.351567000000000185e+00 1.907917000000000085e+00 -1.183440000000000047e+00 3.385438000000000169e+00 -1.972291000000000016e+00 1.519228000000000023e+00 -4.254999999999999755e-02 -3.834734000000000087e+00 -1.259371000000000018e+00 3.301984000000000030e+00 -1.955022000000000038e+00 -1.504340000000000011e+00 -3.259405999999999803e+00 1.920411000000000090e+00 1.230677999999999939e+00 7.120999999999999726e-03 9.520000000000000684e-03 4.116399999999999920e-02 3.106799000000000088e+00 -1.769490000000000007e+00 -4.644000000000000211e-02 -1.354900000000000028e-02 3.558380000000000098e+00 -3.853800000000000281e-02 5.386900000000000022e-02 3.040000000000000167e-04 4.623700000000000032e-02 -3.776399999999999896e-02 -5.997899999999999759e-02 1.783074999999999966e+00 5.575999999999999707e-02 -1.185709999999999958e-01 -1.016240999999999950e+00 3.317152999999999796e+00 -1.876293999999999906e+00 -1.469870999999999928e+00 -6.584999999999999708e-03 3.808549999999999880e+00 1.453846999999999889e+00 -3.348751000000000033e+00 1.931081999999999965e+00 -1.246739000000000042e+00 -4.960699999999999832e-02 -3.796247999999999845e+00 1.213378999999999985e+00 2.552899999999999961e-02 -1.695100000000000079e-02 -1.688698999999999950e+00 3.388085999999999931e+00 -1.935837999999999948e+00 1.177270000000000039e+00 3.404831999999999859e+00 1.980634999999999923e+00 7.249000000000000235e-03 -3.449870999999999910e+00 -2.022158000000000122e+00 3.971999999999999836e-03 3.016697999999999880e+00 1.773430999999999980e+00 -1.642700000000000063e-02 -3.081482999999999972e+00 1.772702000000000000e+00 3.423799999999999760e-02 -3.355348999999999915e+00 -1.834297999999999984e+00 1.198876000000000053e+00 -5.818199999999999761e-02 -3.821851000000000109e+00 -1.479938999999999893e+00 -2.985542999999999836e+00 -1.809317000000000064e+00 2.742299999999999946e-02 -2.487800000000000081e-02 9.468100000000000127e-02 -2.078299999999999939e-02 -3.302661000000000069e+00 -1.895502999999999938e+00 -1.228993999999999920e+00 5.643900000000000305e-02 3.802461999999999787e+00 1.232223999999999986e+00 3.289287999999999990e+00 -1.788138999999999923e+00 -1.215162000000000075e+00 -3.417413999999999952e+00 1.949759999999999938e+00 1.481554999999999955e+00 -9.632400000000000684e-02 -5.172899999999999721e-02 9.421920000000000295e-01 3.241782999999999859e+00 1.933907000000000043e+00 -1.465899000000000063e+00 7.928499999999999437e-02 3.753051999999999833e+00 -1.162001000000000062e+00 3.322607999999999784e+00 -1.973014999999999963e+00 1.173961000000000032e+00 3.142949999999999910e-01 3.686699999999999700e-02 -8.147889999999999855e-01 -6.734959999999999836e-01 -2.371290000000000064e-01 4.393250000000000210e-01 -2.003600000000000103e-01 5.430709999999999704e-01 -1.545000000000000019e-02 -2.259099999999999997e-02 -4.261809999999999765e-01 2.852700000000000236e-01 2.869920000000000249e-01 1.224699999999999955e-01 3.794199999999999656e-02 -4.531999999999999917e-02 -3.616099999999999870e-01 -3.409269999999999801e-01 -4.049260000000000081e-01 -5.323259999999999659e-01 -4.159840000000000204e-01 1.981000000000000122e-02 -3.086960000000000259e-01 1.011246000000000089e+00 -4.514580000000000259e-01 -9.615600000000000536e-02 5.208279999999999577e-01 4.296920000000000184e-01 -2.111870000000000136e-01 -9.928439999999999488e-01 -3.306910000000000127e-01 -1.570229999999999959e-01 -5.258300000000000196e-01 -3.137980000000000214e-01 4.542640000000000011e-01 -9.371950000000000003e-01 2.374809999999999977e-01 5.019169999999999465e-01 9.486999999999999877e-01 -5.533829999999999583e-01 5.030400000000000149e-02 -2.320399999999999893e-02 1.098149999999999959e-01 -8.510299999999999809e-02 1.303970999999999991e+00 -1.055340000000000028e-01 2.456490000000000062e-01 4.266170000000000240e-01 6.170769999999999866e-01 2.018409999999999926e-01 6.944400000000000572e-02 2.389910000000000090e-01 2.154349999999999876e-01 -9.089789999999999814e-01 -1.602329999999999866e-01 5.241400000000000226e-02 6.264100000000000223e-02 2.841170000000000084e-01 -4.682399999999999757e-02 -1.871099999999999847e-02