-5.346368082799999684e+02
-5.345262583400000267e+02
-5.345609239299999444e+02
-5.346541893500000242e+02
-5.346499778300000116e+02
-5.402559795500000064e+02
-5.403618839199999684e+02
-5.403157170299999734e+02
-5.403192005299999892e+02
-5.403144247400000495e+02
-5.403506350899999688e+02
-5.403056245000000217e+02
-5.402286354499999561e+02
-5.402709423000000015e+02
-5.402753449399999681e+02
