1.684789999999999899e-01 2.816600000000000006e-02 4.343899999999999845e-02 1.273140000000000105e-01 7.018199999999999439e-02 1.718530000000000058e-01 9.297600000000000309e-02 1.732019999999999949e-01 -4.594000000000000167e-02 1.296480000000000132e-01 7.850400000000000433e-02 -1.724779999999999924e-01 1.585000000000000037e-03 -3.726600000000000051e-02 4.886499999999999871e-02 -9.835999999999999258e-03 6.803000000000000019e-03 1.126000000000000048e-03 2.022639999999999993e-01 -1.193299999999999916e-02 -4.930500000000000160e-02 -9.636100000000000221e-02 -1.855350000000000055e-01 -3.020999999999999814e-03 -2.351400000000000018e-02 9.521499999999999408e-02 -1.811989999999999990e-01 1.181340000000000029e-01 6.258600000000000274e-02 -1.605100000000000138e-01 -1.357379999999999975e-01 -6.993599999999999817e-02 1.829610000000000125e-01 -5.824900000000000216e-02 7.478300000000000225e-02 1.508859999999999923e-01 9.608000000000000221e-03 1.531520000000000103e-01 -1.878799999999999915e-01 3.355400000000000049e-02 1.722500000000000073e-02 -1.358999999999999965e-03 -1.113169999999999993e-01 3.145439999999999903e-01 1.874049999999999883e-01 -9.403499999999999359e-02 1.884760000000000046e-01 3.325999999999999963e-03 -3.301599999999999674e-02 -2.280969999999999942e-01 -1.065730000000000011e-01 3.530799999999999911e-02 -5.157000000000000126e-03 -5.903100000000000014e-02 -8.839099999999999735e-02 -5.538200000000000067e-02 1.167949999999999960e-01 1.179700000000000054e-01 -1.997400000000000009e-01 5.639099999999999668e-02 3.598699999999999816e-02 1.006340000000000012e-01 -1.825460000000000138e-01 3.023000000000000079e-03 2.944400000000000142e-02 5.829399999999999860e-02 2.246579999999999966e-01 -2.479939999999999922e-01 1.847270000000000023e-01 -1.785480000000000123e-01 1.966800000000000145e-02 4.071199999999999819e-02 -1.617180000000000006e-01 6.145899999999999974e-02 2.295020000000000115e-01 -3.524900000000000255e-02 2.342519999999999880e-01 -2.267389999999999961e-01 3.205100000000000310e-02 -2.397219999999999906e-01 -1.045259999999999939e-01 -2.544799999999999840e-02 -1.461010000000000086e-01 -2.706339999999999857e-01 -1.137039999999999995e-01 -3.961300000000000238e-02 1.141879999999999978e-01 -1.194169999999999954e-01 -8.506400000000000072e-02 9.294999999999999443e-03 -8.825600000000000112e-02 -7.543800000000000505e-02 1.670290000000000108e-01 5.784999999999999865e-02 -7.003900000000000403e-02 -1.871300000000000047e-02 -4.598800000000000110e-02 -3.634899999999999937e-02 -3.373000000000000130e-03 4.380000000000000213e-04 -7.655800000000000105e-02 5.209999999999999788e-04 -2.291500000000000134e-02 -1.437100000000000009e-02 -1.294000000000000011e-03 -2.285999999999999838e-02 4.520300000000000012e-02 2.880000000000000073e-04 -7.157900000000000373e-02 -3.084999999999999895e-02 -4.556000000000000154e-03 -3.487791000000000086e+00 -2.003044000000000047e+00 2.772000000000000158e-03 3.505799999999999889e-02 4.036599999999999910e-02 -4.065200000000000063e-02 3.700500000000000317e-02 3.971299000000000134e+00 4.174699999999999939e-02 -4.376900000000000235e-02 -2.120000000000000031e-04 4.953599999999999670e-02 -3.490264999999999951e+00 -1.990784000000000109e+00 -4.015200000000000019e-02 8.354300000000000614e-02 1.936999999999999920e-03 -2.674999999999999861e-03 3.496650999999999954e+00 -1.965902000000000038e+00 2.713000000000000134e-03 1.365000000000000067e-02 -3.544800000000000034e-02 1.728706999999999994e+00 -3.245900000000000174e-02 -7.557400000000000229e-02 -1.721213000000000104e+00 6.786799999999999777e-02 -2.658699999999999952e-02 7.908000000000000099e-03 3.526254000000000222e+00 -2.025628999999999902e+00 5.179999999999999709e-03 -1.324299999999999956e-02 1.022910000000000069e-01 -1.741605999999999987e+00 -1.511299999999999970e-02 3.900023000000000017e+00 1.474145999999999956e+00 4.466500000000000331e-02 1.398899999999999970e-02 -2.957500000000000059e-02 3.439652999999999849e+00 1.991352000000000011e+00 2.933200000000000043e-02 -1.726099999999999857e-02 4.807399999999999868e-02 7.182000000000000016e-03 -4.638999999999999894e-03 1.926299999999999887e-02 -8.519999999999999796e-03 3.489616999999999969e+00 1.968750000000000000e+00 1.055500000000000015e-02 4.988000000000000073e-02 1.918000000000000000e-03 -1.792099999999999943e-02 -1.099900000000000010e-02 1.003700000000000078e-02 1.345999999999999974e-02 1.836099999999999885e-02 -5.660099999999999854e-02 -1.133900000000000012e-02 -1.384999999999999946e-03 4.921299999999999980e-02 7.938000000000000611e-03 -4.633600000000000219e-02 6.069800000000000195e-02 -9.915999999999999467e-03 -7.602000000000000250e-03 -6.509800000000000308e-02 -1.710804999999999909e+00 8.772000000000000283e-03 -1.693800000000000167e-02 1.721797999999999940e+00 -3.467200000000000143e-02 5.512199999999999739e-02 1.255999999999999998e-02 -3.467254000000000058e+00 1.989146000000000081e+00 -1.330300000000000059e-02 1.784699999999999828e-02 -3.772695999999999827e+00 -1.510253000000000068e+00 5.041699999999999654e-02 -1.153099999999999958e-02 1.760620000000000074e+00 -3.485543999999999976e+00 1.914319000000000104e+00 1.077000000000000006e-02 -6.839199999999999446e-02 -3.985561000000000131e+00 -2.211600000000000024e-02 3.631000000000000113e-03 3.607099999999999890e-02 -6.097600000000000242e-02 2.779500000000000026e-02 1.758900000000000047e-02 -5.235499999999999876e-02 -3.278400000000000064e-02 -4.256969999999999921e-01 4.757080000000000197e-01 -5.865000000000000421e-03 3.674939999999999873e-01 -3.571829999999999727e-01
-5.027199999999999724e-02 2.887100000000000083e-02 0.000000000000000000e+00 2.746699999999999836e-02 -1.600899999999999893e-02 -4.878799999999999804e-02 -4.674999999999999989e-02 2.683999999999999928e-02 0.000000000000000000e+00 2.746799999999999936e-02 -1.600800000000000139e-02 4.878799999999999804e-02 8.540999999999999981e-03 -5.045800000000000285e-02 0.000000000000000000e+00 2.306429999999999869e-01 -7.736099999999999921e-02 1.542930000000000135e-01 1.897389999999999910e-01 -6.641900000000000581e-02 9.999999999999999547e-07 2.306429999999999869e-01 -7.735999999999999821e-02 -1.542920000000000125e-01 4.559999999999999817e-03 7.619999999999999820e-04 0.000000000000000000e+00 -9.542499999999999594e-02 2.033300000000000107e-01 -5.198799999999999949e-02 8.597200000000000675e-02 1.688219999999999998e-01 -9.999999999999999547e-07 -9.542499999999999594e-02 2.033300000000000107e-01 5.198799999999999949e-02 2.347000000000000128e-03 -4.784000000000000058e-03 0.000000000000000000e+00 -2.242639999999999911e-01 -1.944399999999999948e-02 -5.198799999999999949e-02 -1.024830000000000046e-01 -1.593229999999999924e-01 9.999999999999999547e-07 -2.242639999999999911e-01 -1.944600000000000148e-02 5.198799999999999949e-02 -2.253690000000000138e-01 -1.108220000000000038e-01 0.000000000000000000e+00 -1.040439999999999976e-01 -2.885900000000000132e-01 1.289869999999999906e-01 -4.238410000000000233e-01 -1.874820000000000098e-01 -9.999999999999999547e-07 -1.040449999999999986e-01 -2.885900000000000132e-01 -1.289889999999999926e-01 7.870999999999999525e-03 -3.714999999999999986e-03 0.000000000000000000e+00 -1.046480000000000049e-01 6.059300000000000103e-02 1.193329999999999946e-01 -1.046490000000000059e-01 6.059400000000000203e-02 -1.193329999999999946e-01 4.750000000000000056e-02 1.740699999999999886e-02 0.000000000000000000e+00 1.830519999999999925e-01 -1.615060000000000107e-01 1.542870000000000075e-01 1.519409999999999927e-01 -1.315290000000000070e-01 -9.999999999999999547e-07 1.830509999999999915e-01 -1.615060000000000107e-01 -1.542890000000000095e-01 2.052209999999999868e-01 -1.183120000000000005e-01 0.000000000000000000e+00 -1.656300000000000133e-02 2.508009999999999962e-01 0.000000000000000000e+00 1.980099999999999916e-01 2.346509999999999985e-01 1.289919999999999956e-01 -4.939799999999999747e-02 4.610250000000000181e-01 9.999999999999999547e-07 1.980099999999999916e-01 2.346509999999999985e-01 -1.289909999999999946e-01 6.892700000000000216e-02 -4.081499999999999712e-02 3.397399999999999726e-02 6.892700000000000216e-02 -4.081499999999999712e-02 -3.397300000000000320e-02 -3.141300000000000342e-02 1.097429999999999933e-01 -8.779999999999999610e-03 -3.141100000000000142e-02 1.097420000000000062e-01 8.777999999999999345e-03 1.340299999999999998e-02 -3.325000000000000178e-02 -3.017000000000000150e-03 1.340200000000000072e-02 -3.325100000000000278e-02 3.017000000000000150e-03 3.512500000000000344e-02 5.790000000000000008e-03 -3.018999999999999982e-03 3.512200000000000044e-02 5.787999999999999742e-03 3.017999999999999849e-03 -3.440488000000000213e+00 -1.966259999999999897e+00 -1.419600000000000029e-02 -3.440490000000000048e+00 -1.966258000000000061e+00 1.419400000000000002e-02 2.595999999999999783e-03 -1.920999999999999965e-03 1.754939999999999944e+00 2.595000000000000084e-03 -1.923999999999999929e-03 -1.754941000000000084e+00 -1.093400000000000066e-01 -2.788300000000000153e-02 -8.781000000000000610e-03 -1.093360000000000026e-01 -2.788200000000000053e-02 8.779000000000000345e-03 3.288520000000000110e+00 -1.898959000000000064e+00 1.467263999999999902e+00 3.288517999999999830e+00 -1.898956000000000088e+00 -1.467265999999999959e+00 -1.782200000000000104e-02 3.963891999999999971e+00 -1.419800000000000055e-02 -1.782100000000000004e-02 3.963891999999999971e+00 1.419800000000000055e-02 -1.498099999999999953e-02 7.627000000000000099e-03 0.000000000000000000e+00 -6.071900000000000214e-02 3.403500000000000275e-02 -9.999999999999999547e-07 -4.843299999999999689e-02 2.216600000000000167e-02 0.000000000000000000e+00 3.411156000000000077e+00 2.021672000000000136e+00 9.999999999999999547e-07 -2.814900000000000041e-02 -8.186999999999999833e-02 9.999999999999999547e-07 -2.942000000000000171e-02 -1.294289999999999885e-01 -1.999999999999999909e-06 5.823500000000000204e-02 6.509700000000000208e-02 9.999999999999999547e-07 9.878599999999999881e-02 8.997900000000000342e-02 -9.999999999999999547e-07 6.828499999999999848e-02 -6.308099999999999818e-02 1.999999999999999909e-06 9.159000000000000474e-02 -4.033824000000000076e+00 -9.999999999999999547e-07 -6.196499999999999925e-02 3.539099999999999885e-02 1.999999999999999909e-06 -3.506368000000000151e+00 2.023973999999999940e+00 1.999999999999999909e-06 -4.379099999999999659e-02 3.163099999999999939e-02 -9.999999999999999547e-07 -4.556400000000000033e-02 -3.963940000000000019e+00 1.999999999999999909e-06 -7.293000000000000003e-03 3.791999999999999798e-03 9.999999999999999547e-07 -3.106335000000000068e+00 1.792972999999999928e+00 9.999999999999999547e-07 9.013599999999999390e-02 -2.719200000000000089e-02 -9.999999999999999547e-07 3.540372000000000074e+00 1.937969000000000053e+00 3.000000000000000076e-06 -6.748999999999999791e-03 3.485999999999999949e-03 1.999999999999999909e-06 -3.533220000000000249e-01 2.035780000000000090e-01 4.635520000000000196e-01 6.782420000000000115e-01 -3.913010000000000099e-01 -9.999999999999999547e-07 -3.533220000000000249e-01 2.035800000000000110e-01 -4.635529999999999928e-01
1.007599999999999989e-02 -5.154999999999999860e-03 -4.381999999999999611e-03 1.180999999999999932e-02 -1.056099999999999921e-02 -4.433600000000000041e-02 2.502949999999999897e-01 -1.462799999999999934e-01 2.343000000000000031e-03 -8.160100000000000686e-02 1.665210000000000024e-01 4.394599999999999895e-02 -7.350999999999999895e-03 2.335599999999999829e-02 5.376899999999999735e-02 6.600000000000000506e-05 2.099600000000000077e-02 -4.579099999999999837e-02 -7.668999999999999602e-03 2.246700000000000086e-02 -5.059400000000000008e-02 7.299999999999999903e-05 1.429700000000000068e-02 4.549700000000000272e-02 -8.400000000000000348e-04 -1.711899999999999880e-02 5.091999999999999998e-02 1.350639999999999896e-01 7.161499999999999810e-02 8.850700000000000234e-02 -8.270000000000000441e-04 2.618759999999999977e-01 -4.590700000000000336e-02 2.522349999999999870e-01 -6.374599999999999711e-02 -8.109399999999999942e-02 -9.808000000000000745e-03 -4.749999999999999882e-03 -4.375999999999999682e-03 -3.449999999999999833e-04 -1.653489999999999960e-01 9.384699999999999986e-02 -2.500510000000000232e-01 -1.459010000000000029e-01 2.337000000000000102e-03 -3.379999999999999758e-04 -1.636150000000000104e-01 -9.524499999999999633e-02 5.130000000000000011e-04 5.804000000000000131e-03 -3.500000000000000073e-03 -1.285699999999999898e-01 -5.843199999999999783e-02 3.235239999999999783e-01 -3.029649999999999843e-01 -9.132500000000000340e-02 -3.109859999999999847e-01 -1.035979999999999956e-01 -6.345499999999999752e-02 -2.096870000000000123e-01 -1.346600000000000019e-01 7.169499999999999484e-02 8.845100000000000184e-02 -2.517869999999999830e-01 -6.366800000000000237e-02 -8.104100000000000192e-02 -1.219999999999999974e-04 1.123350000000000043e-01 -1.598209999999999908e-01 -1.150799999999999913e-02 -1.118199999999999923e-02 -4.434899999999999953e-02 -1.379999999999999933e-04 1.563370000000000037e-01 1.400730000000000031e-01 8.190699999999999370e-02 1.658949999999999869e-01 4.395899999999999808e-02 6.956000000000000377e-03 2.416400000000000145e-02 5.376800000000000329e-02 1.283340000000000036e-01 -5.805500000000000244e-02 3.234509999999999885e-01 7.204999999999999599e-03 2.329200000000000020e-02 -5.059299999999999908e-02 3.027500000000000191e-01 -9.095200000000000506e-02 -3.109140000000000237e-01 1.047160000000000035e-01 -6.411300000000000332e-02 -2.097330000000000028e-01 -4.180000000000000230e-04 1.296209999999999862e-01 4.129369999999999985e-01 3.805999999999999921e-03 3.037999999999999902e-03 1.086299999999999939e-02 -7.705000000000000043e-03 -3.382000000000000024e-03 -1.290799999999999934e-02 5.707399999999999973e-02 1.196599999999999921e-02 -6.357999999999999936e-03 9.683899999999999453e-02 1.232999999999999938e-03 1.068099999999999952e-02 1.900000000000000105e-04 1.934800000000000061e-02 1.487300000000000080e-02 1.939999999999999993e-04 5.883900000000000241e-02 -9.166999999999999801e-03 -4.336999999999999710e-03 4.518000000000000314e-03 1.088100000000000005e-02 7.161999999999999963e-03 -1.894000000000000067e-03 -1.292599999999999999e-02 9.659999999999999533e-04 3.061499999999999985e-02 1.720374000000000070e+00 9.680000000000000019e-04 3.781700000000000339e-02 -1.724563999999999986e+00 3.422999999999999828e-03 -3.529600000000000098e-02 1.713724000000000025e+00 -3.256461999999999968e+00 -1.912282000000000037e+00 -1.459532000000000052e+00 6.300000000000000261e-04 -8.918999999999999845e-03 -2.338600000000000054e-02 5.950000000000000427e-04 3.952948000000000128e+00 8.002999999999999697e-03 -5.806200000000000250e-02 1.125199999999999985e-02 -6.330999999999999822e-03 -9.781600000000000017e-02 5.180000000000000143e-04 1.065499999999999954e-02 -3.416999999999999899e-03 -3.442100000000000021e-02 1.713667999999999969e+00 3.257198999999999955e+00 -1.911880999999999942e+00 -1.459464000000000095e+00 -2.962700000000000056e-02 -2.247700000000000045e-02 5.890000000000000053e-04 -5.647300000000000236e-02 -1.441500000000000073e-02 -1.814000000000000074e-03 6.520000000000000188e-04 -2.034299999999999997e-02 -3.538600000000000079e-02 6.639999999999999852e-04 -4.674199999999999883e-02 3.665800000000000308e-02 -6.210000000000000242e-03 2.185799999999999896e-02 1.037300000000000028e-02 3.300300000000000011e+00 1.931991000000000014e+00 -4.638999999999999894e-03 7.749999999999999728e-04 -4.095499999999999835e-02 2.507999999999999813e-03 8.369999999999999619e-04 -3.844956999999999958e+00 -5.416999999999999940e-03 -3.115199999999999914e-02 6.416999999999999961e-03 8.972000000000000808e-03 -3.451719000000000204e+00 -1.979576999999999920e+00 -4.851000000000000277e-03 5.968000000000000214e-03 2.088100000000000026e-02 1.035999999999999942e-02 -3.300333999999999879e+00 1.930797000000000097e+00 -4.628000000000000169e-03 2.888500000000000095e-02 -2.164900000000000158e-02 5.850000000000000165e-04 5.574799999999999894e-02 -1.359199999999999992e-02 -1.809999999999999977e-03 3.041699999999999959e-02 5.224000000000000345e-03 8.978999999999999135e-03 3.450607000000000202e+00 -1.981362999999999985e+00 -4.857000000000000206e-03 3.789999999999999966e-04 5.058100000000000096e-02 -1.747862000000000027e+00 -4.820000000000000066e-04 3.812755000000000116e+00 1.223214999999999941e+00 1.054000000000000032e-03 -4.546229999999999993e-01 4.600000000000000004e-05 -7.616340000000000332e-01 8.229999999999999469e-04 4.093330000000000024e-01 7.617690000000000294e-01 6.999999999999999895e-06 4.094289999999999874e-01 -1.072999999999999952e-03 3.887300000000000200e-01 -8.238490000000000535e-01
4.039000000000000055e-03 1.046050000000000035e-01 -1.217919999999999975e-01 -3.825999999999999974e-03 -1.007000000000000083e-03 5.491000000000000221e-03 1.810400000000000065e-01 1.456530000000000047e-01 1.124040000000000039e-01 3.334000000000000158e-03 -3.903999999999999918e-03 -3.641999999999999838e-03 -1.052339999999999942e-01 -6.121299999999999658e-02 -1.284629999999999939e-01 -2.537999999999999892e-03 -2.448999999999999788e-03 5.485000000000000292e-03 -1.061819999999999986e-01 -6.175400000000000333e-02 1.290520000000000000e-01 -1.366000000000000027e-03 5.256000000000000255e-03 -3.638999999999999874e-03 9.195200000000000595e-02 -4.890400000000000302e-02 -1.217619999999999952e-01 1.153819999999999985e-01 6.644100000000000006e-02 2.195149999999999879e-01 2.159889999999999866e-01 8.386699999999999711e-02 1.123750000000000027e-01 -1.035399999999999932e-01 -5.972700000000000231e-02 -1.313960000000000128e-01 2.802599999999999883e-02 -1.252900000000000021e-02 -5.199800000000000255e-02 -1.005989999999999940e-01 -5.802100000000000313e-02 1.322659999999999947e-01 1.782999999999999863e-02 -1.816600000000000159e-02 4.861800000000000149e-02 1.132119999999999932e-01 -5.752700000000000174e-02 -1.325590000000000102e-01 3.360999999999999838e-03 2.497000000000000088e-03 5.677999999999999887e-03 1.968560000000000032e-01 -2.360420000000000018e-01 1.354730000000000101e-01 7.283000000000000411e-03 1.267169999999999963e-01 -1.324960000000000027e-01 4.106000000000000275e-03 3.053600000000000064e-02 -5.199700000000000155e-02 -1.055129999999999957e-01 2.884260000000000157e-01 1.354090000000000016e-01 -5.865999999999999687e-03 2.445200000000000151e-02 4.861999999999999655e-02 1.025530000000000053e-01 -6.772200000000000442e-02 -1.287790000000000046e-01 -2.422399999999999901e-02 -1.497199999999999920e-02 -5.218500000000000222e-02 -9.628699999999999759e-02 -5.090399999999999786e-02 1.275540000000000007e-01 -7.474999999999999874e-03 1.229910000000000031e-01 -1.288509999999999933e-01 -3.397999999999999979e-03 -1.415129999999999999e-01 1.682559999999999889e-01 -9.235000000000000153e-02 -5.758300000000000224e-02 1.276249999999999885e-01 2.031399999999999872e-02 -1.550279999999999991e-01 -1.588469999999999882e-01 -9.390700000000000436e-02 -5.473599999999999993e-02 -1.743810000000000082e-01 -1.253630000000000022e-01 6.838199999999999834e-02 1.683010000000000062e-01 -1.251919999999999977e-01 9.571799999999999753e-02 -1.588930000000000065e-01 -2.306899999999999923e-02 2.969099999999999864e-02 -1.276099999999999977e-02 -2.219700000000000145e-02 4.038377999999999801e+00 4.210000000000000200e-03 -5.591299999999999742e-02 -3.141999999999999654e-02 -4.988000000000000246e-03 -3.512560000000000127e+00 -2.027095000000000091e+00 5.315000000000000280e-03 1.529699999999999983e-02 -3.511999999999999844e-02 -1.275399999999999971e-02 3.487083999999999850e+00 -2.038342000000000098e+00 4.206999999999999802e-03 -5.838999999999999746e-02 -3.300299999999999762e-02 3.529700000000000198e-02 -3.502962000000000131e+00 -2.021519000000000066e+00 -3.559299999999999964e-02 6.761899999999999855e-02 -7.960000000000000495e-04 -2.654000000000000109e-03 3.528945000000000221e+00 -1.983765999999999918e+00 6.629000000000000344e-03 3.246899999999999786e-02 5.765499999999999792e-02 -2.661000000000000171e-03 4.561099999999999877e-02 4.045796000000000170e+00 6.636000000000000405e-03 8.230899999999999328e-02 -5.919499999999999762e-02 -2.053999999999999836e-03 3.535683000000000131e+00 -2.053757000000000055e+00 3.674999999999999881e-03 -1.079699999999999931e-02 1.001390000000000058e-01 -2.037999999999999881e-03 -1.163900000000000004e-02 4.088373999999999953e+00 3.661000000000000192e-03 -4.798499999999999988e-02 -2.731700000000000100e-02 1.736429999999999918e+00 -3.349282000000000092e+00 -1.933238999999999930e+00 -1.464132999999999907e+00 8.300000000000000086e-04 7.152999999999999636e-03 1.501700000000000083e-02 2.449999999999999921e-04 -8.576999999999999555e-03 -1.418600000000000069e-02 8.162000000000000852e-03 -2.657000000000000074e-03 1.502399999999999916e-02 -5.741999999999999708e-03 4.693000000000000123e-03 -1.419400000000000002e-02 3.614200000000000051e-02 2.158699999999999855e-02 -1.760192999999999897e+00 3.279368999999999978e+00 1.894099999999999895e+00 1.500351999999999908e+00 -1.697800000000000004e-02 1.160399999999999973e-02 1.613300000000000151e-02 -5.550399999999999778e-02 2.212899999999999937e-02 -2.007199999999999956e-02 -6.569000000000000186e-03 -2.707999999999999904e-03 -1.749857999999999913e+00 8.555000000000000104e-03 6.026000000000000106e-03 1.750105000000000022e+00 1.472000000000000001e-03 -2.178199999999999928e-02 1.611900000000000138e-02 -8.680999999999999481e-03 -6.039800000000000030e-02 -2.005799999999999944e-02 1.758699999999999847e-02 1.035499999999999962e-02 -1.757733999999999908e+00 5.039400000000000129e-02 2.930100000000000066e-02 1.746831999999999940e+00 -2.671000000000000197e-03 -4.444000000000000034e-02 2.416000000000000092e-02 -4.518000000000000314e-03 -3.992386000000000212e+00 -1.804100000000000148e-02 -3.907700000000000062e-02 2.024499999999999911e-02 2.413900000000000073e-02 -3.459867000000000026e+00 1.992893999999999943e+00 -1.802099999999999883e-02 3.525179999999999980e-01 2.027960000000000040e-01 -4.200670000000000237e-01 -3.655999999999999962e-03 -9.940000000000000918e-04 -2.334000000000000137e-03 -3.135999999999999899e-02 -1.835499999999999979e-02 5.773999999999999966e-02 -3.232920000000000238e-01 -1.878900000000000015e-01 3.622770000000000157e-01
-9.126999999999999696e-03 1.588150000000000117e-01 -1.857789999999999997e-01 1.372609999999999941e-01 8.685199999999999865e-02 1.704640000000000044e-01 9.894400000000000417e-02 3.269509999999999916e-01 1.861710000000000031e-01 1.308800000000000067e-02 2.495300000000000018e-01 -1.707660000000000011e-01 -1.088260000000000061e-01 -6.325600000000000667e-02 -1.218729999999999952e-01 1.440780000000000116e-01 7.584599999999999675e-02 1.704670000000000074e-01 1.943989999999999885e-01 1.118029999999999996e-01 1.229969999999999952e-01 2.228999999999999870e-01 -1.129870000000000041e-01 -1.707710000000000061e-01 1.322969999999999979e-01 -8.737100000000000422e-02 -1.857439999999999924e-01 3.452999999999999906e-03 1.848999999999999949e-03 1.102900000000000061e-02 3.319320000000000048e-01 -7.782699999999999341e-02 1.861359999999999959e-01 4.378300000000000247e-02 2.534300000000000094e-02 4.778199999999999809e-02 -7.630999999999999762e-03 3.456599999999999950e-02 -4.890499999999999708e-02 1.795300000000000021e-02 1.043900000000000036e-02 -4.730600000000000083e-02 1.173160000000000036e-01 1.960770000000000013e-01 4.806099999999999955e-02 1.101950000000000013e-01 -5.100299999999999973e-02 -1.241509999999999975e-01 2.128999999999999990e-02 1.287199999999999976e-02 -1.017770000000000064e-01 -1.874599999999999878e-02 9.200099999999999945e-02 1.252860000000000085e-01 1.139300000000000035e-02 1.208830000000000043e-01 -1.240819999999999979e-01 2.703799999999999953e-02 -2.384700000000000014e-02 -4.890300000000000202e-02 7.071299999999999808e-02 -6.229799999999999921e-02 1.252169999999999950e-01 2.293890000000000096e-01 3.555000000000000000e-03 4.806099999999999955e-02 -3.495499999999999996e-02 1.621399999999999925e-02 4.529899999999999899e-02 -1.328880000000000061e-01 -7.771599999999999342e-02 3.517230000000000079e-01 -1.350649999999999906e-01 -7.897999999999999465e-02 -3.529829999999999912e-01 -3.552000000000000036e-03 -3.802400000000000224e-02 4.529899999999999899e-02 -1.644029999999999936e-01 5.952099999999999752e-02 1.371960000000000124e-01 -2.396939999999999904e-01 -1.306410000000000071e-01 -1.378429999999999933e-01 -1.440019999999999911e-01 -8.363500000000000101e-02 -1.864999999999999991e-01 -3.177599999999999869e-02 -1.715230000000000088e-01 1.372549999999999881e-01 -3.924369999999999803e-01 -2.271150000000000113e-01 1.869760000000000033e-01 -2.341070000000000095e-01 -1.416679999999999884e-01 -1.379039999999999988e-01 -3.462099999999999900e-02 3.311299999999999660e-02 -8.373999999999999500e-03 -3.637200000000000155e-02 3.975366999999999873e+00 8.167000000000000648e-03 -1.198619999999999963e-01 -6.832199999999999385e-02 -8.776000000000000814e-03 -3.567015000000000047e+00 -2.058520000000000127e+00 1.493399999999999936e-02 1.246099999999999985e-02 -4.679099999999999926e-02 -8.378999999999999296e-03 3.425409000000000148e+00 -2.019063000000000052e+00 8.170000000000000179e-03 3.247900000000000093e-02 1.947899999999999979e-02 -9.100999999999999715e-03 -1.788800000000000112e-02 -9.605999999999999955e-03 9.731999999999999332e-03 1.043520000000000003e-01 -4.108099999999999946e-02 2.887899999999999842e-02 3.539762000000000075e+00 -2.023496000000000183e+00 -2.415000000000000133e-02 1.593200000000000172e-02 1.096509999999999985e-01 2.886400000000000077e-02 1.659800000000000164e-02 4.075059000000000431e+00 -2.413900000000000073e-02 -8.247000000000000858e-03 1.541999999999999968e-02 1.717262999999999984e+00 4.144799999999999873e-02 -1.321100000000000052e-02 -1.706404000000000032e+00 8.554000000000000839e-03 -1.560100000000000028e-02 1.717281000000000057e+00 8.611000000000000598e-03 4.174400000000000333e-02 -1.706422000000000105e+00 -3.160199999999999815e-02 -1.786799999999999847e-02 -2.151300000000000087e-02 -3.444862999999999786e+00 -1.988404000000000060e+00 2.319399999999999934e-02 8.739900000000000446e-02 9.839999999999999789e-03 1.066399999999999987e-02 3.526123000000000118e+00 2.011887999999999899e+00 -1.438399999999999922e-02 5.376700000000000229e-02 7.101699999999999680e-02 1.064900000000000048e-02 3.507026999999999894e+00 2.047854000000000063e+00 -1.436800000000000056e-02 2.756999999999999902e-03 2.337999999999999801e-03 -1.714749000000000079e+00 -1.510200000000000084e-02 -7.974000000000000185e-03 1.714773000000000103e+00 -4.260900000000000104e-02 -3.193900000000000211e-02 1.187599999999999940e-02 -2.752299999999999885e-02 -6.234900000000000164e-02 -1.318100000000000001e-02 -1.766600000000000115e-02 -9.086999999999999592e-03 -1.766902999999999890e+00 -4.088800000000000073e-02 -2.249100000000000057e-02 1.748064000000000062e+00 -4.907199999999999757e-02 -2.217099999999999974e-02 1.185199999999999969e-02 -6.787200000000000177e-02 6.096999999999999989e-03 -1.315700000000000029e-02 -4.603800000000000253e-02 -2.637499999999999914e-02 -2.920000000000000026e-02 -3.520722000000000129e+00 -2.032681999999999878e+00 3.040599999999999900e-02 -4.005899999999999739e-02 7.485600000000000587e-02 1.128999999999999969e-02 -3.385997999999999841e+00 1.999800999999999940e+00 -1.647699999999999859e-02 4.553200000000000303e-02 -7.174200000000000021e-02 1.127900000000000083e-02 3.982399999999999829e-02 -3.932344000000000062e+00 -1.646399999999999947e-02 5.990999999999999798e-03 2.755000000000000070e-03 -5.079000000000000181e-03 2.746499999999999983e-02 1.699200000000000016e-02 1.125030000000000058e-01 -7.583499999999999963e-02 -1.656960000000000099e-01 -5.437600000000000072e-02 -1.818520000000000136e-01 1.831500000000000142e-02 -5.437499999999999972e-02