6.042356169621221795e+01 2.139434501730911806e-02 7.240146006887514252e-03 2.139434501730911806e-02 6.021562452662791998e+01 -1.053703440403478409e+00 7.240146006887514252e-03 -1.053703440403478409e+00 2.018239833703507813e+01
5.991732434181706424e+01 1.282691235352901860e-01 0.000000000000000000e+00 1.282691235352901860e-01 6.006510616560706239e+01 0.000000000000000000e+00 0.000000000000000000e+00 0.000000000000000000e+00 2.166427070416601808e+01
6.031737876366081252e+01 7.579458996863373604e-04 6.609993311218058691e-05 7.579458996863373604e-04 6.038309972382314328e+01 -1.035592058730740783e+00 6.609993311218058691e-05 -1.035592058730740783e+00 2.019265263999188065e+01
6.028214749931201766e+01 -6.239393019569099835e-02 -9.137125953962946801e-01 -6.239393019569099835e-02 6.035880579507331589e+01 -5.275435661683132160e-01 -9.137125953962946801e-01 -5.275435661683132160e-01 2.013949948044527360e+01
6.041927842054654008e+01 3.190291238348358926e-01 -2.445697525150681770e-03 3.190291238348358926e-01 6.005674232073727126e+01 -1.423351893015621953e-03 -2.445697525150681770e-03 -1.423351893015621953e-03 2.001031817783303524e+01
4.784422538389213742e+01 6.070163963006564717e-02 1.387277943203390519e-03 6.070163963006564717e-02 4.780577662299847219e+01 4.702637095604713840e-06 1.387277943203390519e-03 4.702637095604713840e-06 3.778537398649846324e+01
4.723312239595539808e+01 1.925870969762998319e-01 -1.156143329954418958e-01 1.925870969762998319e-01 4.743691587713052371e+01 -5.556635992166529536e-02 -1.156143329954418958e-01 -5.556635992166529536e-02 3.761968127107193283e+01
4.765224022446407304e+01 2.188466225181565639e-01 -3.472427231394520364e-02 2.188466225181565639e-01 4.747164955471865966e+01 -9.381290742021843043e-02 -3.472427231394520364e-02 -9.381290742021843043e-02 3.763761712895456668e+01
4.762826147791358267e+01 3.930652189990244127e-01 3.328056272559455631e-02 3.930652189990244127e-01 4.720827836417932133e+01 1.834968994704959389e-02 3.328056272559455631e-02 1.834968994704959389e-02 3.772800651656918802e+01
4.764085984269271279e+01 2.221102526625062246e-01 -1.078126580538336654e-01 2.221102526625062246e-01 4.747763601174136028e+01 -7.163527087734659904e-02 -1.078126580538336654e-01 -7.163527087734659904e-02 3.768558872996683107e+01
4.751858187293279912e+01 1.526381948491377927e-01 3.010628268606137248e-02 1.526381948491377927e-01 4.737274839396099679e+01 1.685425135064729310e-02 3.010628268606137248e-02 1.685425135064729310e-02 3.767190405601862579e+01
4.767814705222375693e+01 3.783741807123552903e-02 -6.830110117656286450e-02 3.783741807123552903e-02 4.773473858703226824e+01 4.862056493145713171e-02 -6.830110117656286450e-02 4.862056493145713171e-02 3.757524135051846770e+01
4.785858253494502179e+01 1.400445327071083747e-02 -4.166536466705775786e-03 1.400445327071083747e-02 4.786633718351566813e+01 -3.303602559662311561e-02 -4.166536466705775786e-03 -3.303602559662311561e-02 3.770361393795428739e+01
4.771203895777178161e+01 1.298398102096461407e-02 -1.396683217394599844e-03 1.298398102096461407e-02 4.785798530003387441e+01 7.177164735311913901e-02 -1.396683217394599844e-03 7.177164735311913901e-02 3.768508084516050616e+01
4.780703692974009300e+01 5.503025929276635780e-02 8.369283239047708989e-02 5.503025929276635780e-02 4.777335194022428055e+01 4.871932031046483091e-02 8.369283239047708989e-02 4.871932031046483091e-02 3.765541190772433566e+01
