-5.843841321400000197e+02
-5.843120027100000016e+02
-5.843908474700000397e+02
-5.844152637600000162e+02
-5.843857932800000299e+02
-5.816098558800000546e+02
-5.816098554599999488e+02
-5.815831498799999508e+02
-5.815831502199999932e+02
-5.815728274199999532e+02
-5.815728274900000088e+02
