-1.041020000000000001e-01 5.985300000000000342e-02 -1.633479999999999932e-01 1.038860000000000061e-01 -6.022799999999999682e-02 1.633479999999999932e-01 -3.267926000000000109e+00 1.885876000000000108e+00 1.217808000000000002e+00 2.235399999999999887e-02 -1.375799999999999940e-02 -9.624329999999999830e-01 -2.648000000000000180e-03 -3.504258999999999791e+00 -5.936000000000000304e-03 1.610000000000000103e-03 8.846700000000000397e-02 9.967000000000000165e-03 8.500099999999999323e-02 3.122700000000000128e-02 -2.212899999999999937e-02 2.544700000000000087e-02 -1.794000000000000022e-03 1.963799999999999921e-02 1.494299999999999969e-02 -8.840399999999999647e-02 -2.213000000000000037e-02 1.376100000000000066e-02 -2.031799999999999926e-02 1.964000000000000121e-02 3.061399999999999885e-02 2.700599999999999876e-02 -1.653400000000000009e-02 -7.834999999999999951e-03 1.448100000000000082e-02 1.840400000000000022e-02 -6.780799999999999328e-02 3.855800000000000199e-02 1.381000000000000066e-03 -8.887000000000000802e-03 4.540999999999999898e-03 -1.137999999999999906e-03 3.034845999999999933e+00 1.754448000000000008e+00 -5.936000000000000304e-03 -7.455000000000000515e-02 -4.578399999999999831e-02 9.965999999999999165e-03 -2.469500000000000167e-02 1.371400000000000050e-02 2.254300000000000054e-02 5.141999999999999869e-03 -3.511999999999999931e-03 -2.094000000000000028e-02 -8.552000000000000574e-03 -3.887899999999999689e-02 -1.653299999999999909e-02 -1.693000000000000060e-02 6.790000000000000245e-04 1.840299999999999922e-02 3.267211999999999783e+00 -1.887110999999999983e+00 -1.217808999999999919e+00 -2.309299999999999894e-02 1.247900000000000051e-02 9.624340000000000117e-01 -8.403099999999999459e-02 -3.126299999999999912e-02 2.213000000000000037e-02 -2.447699999999999876e-02 1.758999999999999930e-03 -1.963900000000000021e-02 1.912000000000000071e-03 3.505476999999999954e+00 5.934000000000000039e-03 -2.373000000000000109e-03 -8.745400000000000396e-02 -9.965999999999999165e-03 -3.033422999999999981e+00 -1.754475999999999924e+00 5.936999999999999569e-03 7.581000000000000238e-02 4.562900000000000289e-02 -9.967000000000000165e-03 8.080999999999999642e-03 4.001500000000000196e-02 1.653400000000000009e-02 1.645800000000000041e-02 4.560000000000000251e-04 -1.840299999999999922e-02 2.422500000000000001e-02 -1.452999999999999951e-02 -2.254300000000000054e-02 -5.612999999999999934e-03 2.697000000000000178e-03 2.094000000000000028e-02 -1.545799999999999952e-02 8.922700000000000076e-02 2.213000000000000037e-02 -1.427699999999999976e-02 2.113999999999999907e-02 -1.963799999999999921e-02 6.729599999999999471e-02 -3.944299999999999889e-02 -1.381000000000000066e-03 8.375999999999999765e-03 -5.426000000000000267e-03 1.137999999999999906e-03 -2.939399999999999999e-02 -2.684699999999999934e-02 1.653299999999999909e-02 9.053000000000000283e-03 -1.432199999999999966e-02 -1.840299999999999922e-02 -3.587090000000000001e-01 2.069070000000000076e-01 4.245929999999999982e-01 3.585439999999999738e-01 -2.071919999999999873e-01 -4.245920000000000250e-01 2.216160000000000074e-01 -4.580210000000000115e-01 -4.759399999999999742e-01 -3.102699999999999902e-02 -1.908449999999999869e-01 -3.347499999999999781e-02 -2.284000000000000006e-03 -4.207319999999999949e-01 4.779030000000000222e-01 9.412999999999999493e-03 1.209900000000000038e-02 3.227900000000000214e-02 3.120799999999999963e-02 1.905189999999999939e-01 3.347200000000000175e-02 -2.217780000000000029e-01 4.585350000000000259e-01 4.759419999999999762e-01 -9.240999999999999215e-03 -1.242399999999999928e-02 -3.227800000000000114e-02 2.118000000000000091e-03 4.212310000000000221e-01 -4.779050000000000242e-01 -1.497610000000000052e-01 -1.222960000000000019e-01 3.347399999999999681e-02 -5.074659999999999727e-01 -3.709199999999999997e-02 4.759369999999999989e-01 5.769999999999999955e-03 1.420100000000000008e-02 -3.228099999999999720e-02 -3.632190000000000141e-01 -2.123500000000000110e-01 -4.778999999999999915e-01 -1.850169999999999870e-01 -5.394100000000000283e-02 5.725000000000000054e-03 4.580000000000000043e-02 -1.871990000000000043e-01 -5.726000000000000187e-03 1.662100000000000036e-02 1.960900000000000143e-02 -6.056999999999999884e-03 8.671999999999999154e-03 2.419899999999999829e-02 6.058000000000000017e-03 1.795400000000000121e-02 -1.077099999999999932e-02 2.961000000000000090e-02 2.009899999999999881e-02 -1.141900000000000033e-02 -1.381000000000000066e-03 1.783900000000000069e-02 -1.070399999999999997e-02 -3.188599999999999768e-02 1.877699999999999855e-02 -1.065499999999999954e-02 3.726999999999999844e-03 5.079909999999999703e-01 3.721200000000000202e-02 -4.759430000000000049e-01 1.493919999999999970e-01 1.222870000000000068e-01 -3.347300000000000275e-02 3.637349999999999750e-01 2.124550000000000050e-01 4.779059999999999975e-01 -6.139000000000000359e-03 -1.421299999999999994e-02 3.227900000000000214e-02 -1.993800000000000086e-02 1.169599999999999980e-02 1.379999999999999933e-03 -1.830599999999999936e-02 1.016300000000000016e-02 -2.961000000000000090e-02 -1.861799999999999913e-02 1.093599999999999954e-02 -3.726999999999999844e-03 -1.819000000000000131e-02 1.009499999999999981e-02 3.188599999999999768e-02 -4.562999999999999695e-02 1.872580000000000078e-01 5.722999999999999789e-03 1.849840000000000095e-01 5.411599999999999744e-02 -5.723999999999999921e-03 -8.512999999999999734e-03 -2.414200000000000026e-02 -6.056999999999999884e-03 -1.665099999999999913e-02 -1.944299999999999848e-02 6.058000000000000017e-03
-4.600000000000000139e-04 1.099999999999999971e-05 0.000000000000000000e+00 -4.609999999999999840e-04 1.200000000000000030e-05 0.000000000000000000e+00 -1.299999999999999940e-03 -7.499999999999999343e-05 0.000000000000000000e+00 -1.304999999999999953e-03 -6.999999999999999387e-05 0.000000000000000000e+00 6.216000000000000171e-03 3.761799999999999866e-02 0.000000000000000000e+00 6.212999999999999773e-03 3.761799999999999866e-02 9.999999999999999547e-07 3.506999999999999701e-02 -1.433500000000000052e-02 -9.999999999999999547e-07 3.507699999999999707e-02 -1.434000000000000032e-02 0.000000000000000000e+00 2.943499999999999936e-02 -2.237799999999999859e-02 3.999999999999999819e-06 2.943600000000000036e-02 -2.238599999999999965e-02 -3.999999999999999819e-06 -5.219999999999999814e-03 3.774099999999999677e-02 1.999999999999999909e-06 -5.224000000000000345e-03 3.774299999999999877e-02 -9.999999999999999547e-07 4.180000000000000230e-04 -8.279999999999999600e-04 9.999999999999999547e-07 4.150000000000000043e-04 -8.260000000000000198e-04 9.999999999999999547e-07 -2.820999999999999897e-02 -2.434800000000000159e-02 3.000000000000000076e-06 -2.820900000000000143e-02 -2.435000000000000012e-02 -5.000000000000000409e-06 -9.489999999999999738e-04 3.000000000000000076e-06 9.999999999999999547e-07 -9.420000000000000205e-04 6.000000000000000152e-06 0.000000000000000000e+00 -3.576900000000000218e-02 -1.321199999999999979e-02 -6.999999999999999895e-06 -3.577299999999999924e-02 -1.321300000000000079e-02 6.999999999999999895e-06 3.063705999999999818e+00 -1.769648000000000110e+00 1.999999999999999909e-06 3.063711000000000073e+00 -1.769643999999999995e+00 -9.999999999999999547e-07 -7.606899999999999773e-02 -4.277700000000000252e-02 1.999999999999999909e-06 -7.607200000000000073e-02 -4.277700000000000252e-02 -3.000000000000000076e-06 -3.159999999999999832e-04 3.537297000000000136e+00 -1.999999999999999909e-06 -3.260000000000000094e-04 3.537287000000000070e+00 1.999999999999999909e-06 -3.062088000000000143e+00 -1.768448000000000020e+00 -3.000000000000000076e-06 -3.062094999999999789e+00 -1.768443999999999905e+00 9.999999999999999547e-07 8.500000000000000611e-05 2.374799999999999828e-02 0.000000000000000000e+00 8.600000000000000331e-05 2.374899999999999928e-02 -9.999999999999999547e-07 1.944999999999999854e-02 -1.177199999999999948e-02 3.000000000000000076e-06 1.944800000000000001e-02 -1.178000000000000054e-02 -1.999999999999999909e-06 -1.508000000000000009e-03 8.808699999999999863e-02 0.000000000000000000e+00 -1.505000000000000044e-03 8.809599999999999376e-02 9.999999999999999547e-07 7.621999999999999609e-02 -4.460200000000000276e-02 -9.999999999999999547e-07 7.622099999999999709e-02 -4.459199999999999969e-02 1.999999999999999909e-06 -1.931099999999999831e-02 -1.178399999999999934e-02 9.999999999999999547e-07 -1.930099999999999871e-02 -1.179499999999999993e-02 -1.999999999999999909e-06 7.281210000000000182e-01 -4.205749999999999766e-01 -3.000000000000000076e-06 7.281290000000000262e-01 -4.205650000000000222e-01 9.999999999999999547e-07 2.052690000000000070e-01 -3.787700000000000095e-02 3.000000000000000076e-06 3.511999999999999844e-02 2.178199999999999928e-02 1.999999999999999909e-06 2.052740000000000120e-01 -3.788300000000000001e-02 -3.999999999999999819e-06 3.512300000000000144e-02 2.177700000000000122e-02 -1.999999999999999909e-06 6.897100000000000453e-02 1.956650000000000056e-01 -9.999999999999999547e-07 4.710000000000000102e-04 8.396120000000000250e-01 9.999999999999999547e-07 6.897399999999999365e-02 1.956670000000000076e-01 1.999999999999999909e-06 4.670000000000000214e-04 8.396139999999999715e-01 -9.999999999999999547e-07 -1.353360000000000118e-01 -1.575739999999999919e-01 3.000000000000000076e-06 -7.263619999999999521e-01 -4.201099999999999834e-01 -1.999999999999999909e-06 -1.353370000000000128e-01 -1.575689999999999868e-01 -3.000000000000000076e-06 -7.263600000000000056e-01 -4.201119999999999854e-01 3.000000000000000076e-06 -2.048540000000000083e-01 -3.709500000000000297e-02 0.000000000000000000e+00 1.002999999999999985e-03 4.442999999999999727e-02 -9.999999999999999547e-07 -2.048560000000000103e-01 -3.709799999999999903e-02 0.000000000000000000e+00 9.990000000000001049e-04 4.442600000000000021e-02 9.999999999999999547e-07 9.219999999999999680e-04 -9.359999999999999831e-04 0.000000000000000000e+00 3.767100000000000309e-02 -2.157099999999999990e-02 -9.999999999999999547e-07 9.190000000000000035e-04 -9.420000000000000205e-04 0.000000000000000000e+00 3.767199999999999716e-02 -2.156399999999999983e-02 0.000000000000000000e+00 1.359599999999999975e-01 -1.587149999999999950e-01 -3.999999999999999819e-06 -1.660000000000000017e-03 -4.131699999999999956e-02 -1.999999999999999909e-06 1.359599999999999975e-01 -1.587060000000000137e-01 5.000000000000000409e-06 -1.667999999999999995e-03 -4.131599999999999856e-02 9.999999999999999547e-07 -6.239999999999999887e-04 5.490000000000000088e-04 0.000000000000000000e+00 -3.592499999999999860e-02 2.033199999999999938e-02 -9.999999999999999547e-07 -6.269999999999999532e-04 5.429999999999999714e-04 -9.999999999999999547e-07 -3.592399999999999760e-02 2.033400000000000138e-02 9.999999999999999547e-07 -7.013500000000000290e-02 1.960159999999999958e-01 9.999999999999999547e-07 -3.800800000000000012e-02 -2.291100000000000081e-02 1.999999999999999909e-06 -7.013600000000000390e-02 1.960119999999999918e-01 -9.999999999999999547e-07 -3.800599999999999812e-02 -2.291599999999999887e-02 -9.999999999999999547e-07
-4.449999999999999746e-04 -8.489999999999999283e-03 1.111900000000000041e-02 4.189999999999999931e-04 9.310000000000000567e-03 -1.112199999999999994e-02 -1.270999999999999994e-03 -3.335799999999999876e-02 9.796399999999999553e-01 -1.299000000000000024e-03 8.713000000000000259e-03 -9.678400000000000336e-01 3.066202000000000094e+00 1.793766999999999889e+00 -5.864000000000000289e-03 -6.168200000000000072e-02 -1.878900000000000015e-02 1.556300000000000044e-02 -7.945999999999999938e-03 7.474999999999999874e-03 -1.870499999999999940e-02 2.056099999999999942e-02 -9.499000000000000499e-03 1.803099999999999842e-02 8.172400000000000497e-02 2.834000000000000061e-02 -1.953299999999999828e-02 2.325899999999999843e-02 -3.921000000000000006e-03 1.828899999999999970e-02 -3.065303000000000111e+00 1.793968000000000007e+00 -5.866999999999999819e-03 6.270799999999999985e-02 -1.867399999999999963e-02 1.556899999999999951e-02 5.969999999999999829e-04 -3.539473999999999787e+00 2.188999999999999974e-03 4.180000000000000230e-04 7.427499999999999380e-02 -2.838999999999999944e-03 -8.050000000000000211e-02 2.634200000000000083e-02 -1.952800000000000022e-02 -2.201699999999999838e-02 -5.897000000000000332e-03 1.828300000000000064e-02 -9.359999999999999831e-04 -7.867999999999999994e-02 2.104400000000000021e-02 -9.409999999999999962e-04 -1.152000000000000073e-02 -2.196499999999999841e-02 7.284999999999999809e-03 8.580000000000000820e-03 -1.870799999999999894e-02 -2.123999999999999846e-02 -8.380999999999999561e-03 1.803300000000000042e-02 3.067489000000000132e+00 -1.794130999999999920e+00 5.873999999999999881e-03 -6.065000000000000252e-02 1.849599999999999855e-02 -1.557799999999999983e-02 -7.963900000000000146e-02 -2.474399999999999863e-02 1.953399999999999928e-02 -2.117799999999999891e-02 7.513999999999999846e-03 -1.828899999999999970e-02 -3.170000000000000075e-04 3.539959000000000078e+00 -2.184000000000000177e-03 -2.500000000000000052e-04 -7.499100000000000210e-02 2.834000000000000147e-03 -3.065846000000000071e+00 -1.792918000000000012e+00 5.862000000000000023e-03 6.222899999999999959e-02 1.970099999999999976e-02 -1.556399999999999971e-02 1.060000000000000016e-04 3.515599999999999975e-02 -9.797099999999999698e-01 1.200000000000000030e-04 -6.921000000000000069e-03 9.679100000000000481e-01 8.363000000000000642e-03 -1.009000000000000001e-02 1.869900000000000034e-02 -2.016799999999999843e-02 6.880999999999999964e-03 -1.802300000000000083e-02 -1.502000000000000080e-03 7.767699999999999605e-02 -2.104299999999999921e-02 -1.512000000000000106e-03 1.052499999999999963e-02 2.196400000000000088e-02 7.979999999999999594e-02 -2.657299999999999940e-02 1.952699999999999922e-02 2.133099999999999927e-02 5.677999999999999887e-03 -1.828199999999999964e-02 -8.208999999999999284e-03 -1.011399999999999973e-02 1.868399999999999922e-02 2.034199999999999897e-02 6.847999999999999921e-03 -1.800900000000000070e-02 5.697590000000000154e-01 -1.476480000000000015e-01 4.577820000000000222e-01 -8.030000000000000028e-04 -2.285699999999999885e-02 -1.099900000000000010e-02 3.664910000000000112e-01 -2.134179999999999966e-01 -4.640449999999999853e-01 5.684620000000000228e-01 1.481280000000000097e-01 -4.578740000000000032e-01 1.651150000000000118e-01 1.554399999999999948e-01 -3.148100000000000204e-02 3.652009999999999978e-01 2.138069999999999971e-01 4.641370000000000218e-01 1.575299999999999964e-02 1.532099999999999955e-02 3.322800000000000059e-02 3.340400000000000313e-02 2.089439999999999908e-01 3.870999999999999875e-03 4.850000000000000253e-04 4.194579999999999975e-01 4.681509999999999838e-01 -1.448100000000000082e-02 9.317000000000000628e-03 -4.379000000000000080e-03 4.879999999999999898e-04 4.191369999999999818e-01 -4.669969999999999954e-01 -1.633310000000000040e-01 -1.523690000000000044e-01 3.148299999999999710e-02 -5.679629999999999956e-01 -1.472189999999999888e-01 4.578380000000000227e-01 -1.397200000000000004e-02 -1.223600000000000035e-02 -3.322900000000000159e-02 -3.647009999999999974e-01 -2.129600000000000104e-01 -4.641000000000000125e-01 -5.680260000000000309e-01 1.489209999999999978e-01 -4.578070000000000195e-01 -3.647670000000000079e-01 2.146419999999999995e-01 4.640690000000000093e-01 1.002999999999999985e-03 2.495700000000000002e-02 1.100699999999999942e-02 9.610000000000000486e-04 -4.208049999999999846e-01 -4.680210000000000203e-01 -3.294500000000000206e-02 -2.112660000000000093e-01 -3.870000000000000176e-03 9.510000000000000224e-04 -4.204820000000000224e-01 4.668660000000000032e-01 1.495400000000000028e-02 -1.168100000000000041e-02 4.377999999999999947e-03 1.639770000000000116e-01 -1.535060000000000036e-01 3.148100000000000204e-02 -1.662999999999999982e-03 -1.953200000000000075e-02 -3.239999999999999825e-02 1.463599999999999970e-02 -1.333999999999999943e-02 -3.322699999999999959e-02 -1.657000000000000053e-03 -2.008499999999999869e-02 3.329900000000000221e-02 -6.139999999999999625e-04 1.877399999999999902e-02 3.239700000000000218e-02 -1.658439999999999914e-01 1.540060000000000040e-01 -3.148499999999999910e-02 -6.149999999999999868e-04 1.932000000000000037e-02 -3.329599999999999921e-02 -1.653599999999999862e-02 1.387599999999999945e-02 3.323000000000000259e-02 -3.455400000000000138e-02 2.092980000000000118e-01 3.870000000000000176e-03 3.266199999999999659e-02 -2.126149999999999984e-01 -3.867000000000000211e-03 1.334199999999999969e-02 9.653999999999999387e-03 -4.377999999999999947e-03 -1.527500000000000038e-02 -1.302400000000000085e-02 4.375000000000000416e-03
-1.201460000000000028e-01 1.501300000000000030e-02 9.999999999999999547e-07 -4.674099999999999783e-02 -1.111930000000000002e-01 -9.999999999999999547e-07 -3.051194000000000184e+00 1.837422000000000111e+00 9.999999999999999547e-07 7.542100000000000193e-02 -3.607400000000000190e-02 -9.999999999999999547e-07 -3.103435999999999861e+00 -1.790936000000000083e+00 -9.999999999999999547e-07 7.332800000000000429e-02 4.353200000000000125e-02 0.000000000000000000e+00 6.647699999999999443e-02 -3.560849000000000153e+00 0.000000000000000000e+00 7.127999999999999788e-03 8.259700000000000375e-02 0.000000000000000000e+00 -6.976699999999999569e-02 -3.902800000000000019e-02 -9.999999999999999547e-07 -9.036999999999999894e-03 -3.980000000000000031e-03 9.999999999999999547e-07 2.892199999999999979e-02 -6.459800000000000264e-02 1.999999999999999909e-06 -1.405999999999999915e-03 -1.638600000000000126e-02 -1.999999999999999909e-06 -4.267900000000000166e-02 5.570200000000000151e-02 -1.999999999999999909e-06 -1.610599999999999879e-02 5.331999999999999934e-03 1.999999999999999909e-06 3.068042000000000158e+00 1.817852999999999941e+00 9.999999999999999547e-07 -6.345599999999999852e-02 -3.622100000000000319e-02 -9.999999999999999547e-07 3.107279999999999820e+00 1.747716999999999965e+00 0.000000000000000000e+00 -6.400599999999999346e-02 -3.712000000000000022e-02 0.000000000000000000e+00 -1.553200000000000067e-02 -9.338000000000000814e-03 9.999999999999999547e-07 6.715999999999999748e-03 3.534999999999999948e-03 -9.999999999999999547e-07 1.252600000000000068e-02 -2.199900000000000119e-02 -9.499630000000000019e-01 1.252600000000000068e-02 -2.199699999999999919e-02 9.499640000000000306e-01 -1.092599999999999995e-02 2.262399999999999828e-02 -9.500330000000000163e-01 -1.092500000000000068e-02 2.262399999999999828e-02 9.500340000000000451e-01 -1.871000000000000094e-02 -1.054700000000000082e-02 3.061699999999999838e-02 -1.871000000000000094e-02 -1.054700000000000082e-02 -3.061699999999999838e-02 1.168300000000000068e-02 6.917999999999999670e-03 -5.616000000000000332e-03 1.168499999999999921e-02 6.915000000000000140e-03 5.616000000000000332e-03 3.457999999999999963e-02 2.171000000000000013e-02 4.195800000000000224e-02 3.457699999999999663e-02 2.171299999999999966e-02 -4.195800000000000224e-02 1.176999999999999921e-02 4.954000000000000070e-03 -5.622000000000000261e-03 1.177300000000000048e-02 4.954000000000000070e-03 5.622000000000000261e-03 -1.388600000000000077e-02 -8.139000000000000401e-03 3.695500000000000174e-02 -1.388799999999999930e-02 -8.139999999999999666e-03 -3.695500000000000174e-02 -1.563200000000000006e-02 1.419800000000000055e-02 1.402400000000000001e-02 -1.563000000000000153e-02 1.419800000000000055e-02 -1.402400000000000001e-02 4.690999999999999857e-03 -2.069800000000000112e-02 1.402400000000000001e-02 4.687000000000000194e-03 -2.069999999999999965e-02 -1.402400000000000001e-02 -3.839440000000000075e-01 2.083760000000000057e-01 -4.214149999999999840e-01 -3.839429999999999787e-01 2.083760000000000057e-01 4.214149999999999840e-01 -4.603000000000000320e-03 -8.440000000000000236e-04 0.000000000000000000e+00 -3.718980000000000063e-01 -2.134030000000000094e-01 -9.043590000000000240e-01 -3.718989999999999796e-01 -2.134040000000000104e-01 9.043590000000000240e-01 -2.379000000000000038e-03 -2.631000000000000092e-03 0.000000000000000000e+00 -1.163100000000000071e-02 -4.379170000000000007e-01 -4.213459999999999983e-01 -2.454850000000000088e-01 -1.424269999999999980e-01 0.000000000000000000e+00 -1.163100000000000071e-02 -4.379179999999999739e-01 4.213459999999999983e-01 -6.951999999999999846e-03 -4.746000000000000218e-03 0.000000000000000000e+00 2.037399999999999975e-02 1.232300000000000062e-02 6.805999999999999550e-02 -1.410109999999999975e-01 1.608610000000000040e-01 0.000000000000000000e+00 2.037500000000000075e-02 1.232399999999999989e-02 -6.805999999999999550e-02 2.782000000000000185e-03 7.069999999999999896e-03 0.000000000000000000e+00 1.621999999999999831e-02 3.419400000000000217e-02 3.766900000000000109e-02 -1.228489999999999999e-01 -6.968900000000000095e-02 -9.999999999999999547e-07 1.622300000000000131e-02 3.419500000000000317e-02 -3.766900000000000109e-02 -1.749999999999999982e-04 1.149000000000000065e-03 0.000000000000000000e+00 3.656700000000000228e-02 -4.033000000000000126e-03 3.767500000000000016e-02 6.911399999999999488e-02 -2.038369999999999904e-01 0.000000000000000000e+00 3.656800000000000328e-02 -4.033000000000000126e-03 -3.767600000000000116e-02 7.813000000000000500e-03 -2.432000000000000134e-03 -9.999999999999999547e-07 3.580019999999999869e-01 2.010939999999999950e-01 -4.589409999999999878e-01 2.480900000000000050e-01 1.429040000000000032e-01 0.000000000000000000e+00 3.580019999999999869e-01 2.010949999999999960e-01 4.589409999999999878e-01 -8.379999999999999862e-04 -8.450000000000000479e-04 0.000000000000000000e+00 3.526770000000000183e-01 2.106889999999999874e-01 -4.589670000000000138e-01 1.483579999999999899e-01 1.419890000000000041e-01 -9.999999999999999547e-07 3.526750000000000163e-01 2.106889999999999874e-01 4.589670000000000138e-01 -1.402000000000000034e-03 2.028999999999999988e-03 9.999999999999999547e-07 -2.095999999999999946e-02 -1.338800000000000059e-02 1.242000000000000048e-02 1.964239999999999875e-01 5.712799999999999823e-02 0.000000000000000000e+00 -2.096100000000000046e-02 -1.339000000000000086e-02 -1.242000000000000048e-02 2.979999999999999793e-04 -2.569000000000000103e-03 0.000000000000000000e+00
2.339999999999999958e-04 -3.770000000000000022e-04 0.000000000000000000e+00 3.499999999999999964e-04 -8.399999999999999535e-05 0.000000000000000000e+00 -3.062339999999999840e+00 1.767173000000000105e+00 3.000000000000000076e-06 4.150100000000000317e-02 -2.482600000000000084e-02 -9.999999999999999547e-07 -4.249999999999999763e-04 -3.533640000000000114e+00 0.000000000000000000e+00 -4.730000000000000046e-04 5.032999999999999974e-02 0.000000000000000000e+00 3.229000000000000099e-03 1.350000000000000017e-04 -5.000000000000000409e-06 3.078278000000000070e+00 1.775505000000000111e+00 6.999999999999999895e-06 9.759999999999999796e-04 -2.027999999999999855e-03 9.999999999999999547e-07 1.080000000000000014e-03 -3.553050999999999959e+00 -1.999999999999999909e-06 3.499800000000000133e-02 2.030500000000000013e-02 -3.000000000000000076e-06 6.423199999999999743e-02 3.722199999999999814e-02 3.999999999999999819e-06 -2.918000000000000021e-03 1.108000000000000044e-03 1.999999999999999909e-06 -3.077751000000000126e+00 1.776343000000000005e+00 -3.000000000000000076e-06 3.061421999999999866e+00 1.767217999999999956e+00 1.999999999999999909e-06 -4.256399999999999767e-02 -2.489399999999999946e-02 -9.999999999999999547e-07 -3.438299999999999690e-02 1.932599999999999943e-02 -9.999999999999999547e-07 -6.366299999999999737e-02 3.621100000000000013e-02 9.999999999999999547e-07 -5.559999999999999621e-04 -3.931300000000000072e-02 9.999999999999999547e-07 -5.879999999999999810e-04 -7.309000000000000219e-02 -9.999999999999999547e-07 5.670000000000000127e-04 -1.165999999999999936e-03 -9.635120000000000351e-01 5.659999999999999884e-04 -1.162999999999999971e-03 9.635110000000000063e-01 -1.165199999999999916e-02 -8.923999999999999641e-03 2.130000000000000003e-04 -1.165300000000000016e-02 -8.916999999999999579e-03 -2.130000000000000003e-04 -1.588600000000000081e-02 -5.544999999999999582e-03 2.000000000000000096e-04 -1.587600000000000122e-02 -5.551000000000000378e-03 -2.010000000000000068e-04 -1.866000000000000037e-03 1.638200000000000073e-02 2.010000000000000068e-04 -1.864999999999999904e-03 1.638900000000000079e-02 -2.010000000000000068e-04 1.284700000000000078e-02 -8.873000000000000678e-03 2.290000000000000098e-04 1.285099999999999958e-02 -8.878999999999999740e-03 -2.290000000000000098e-04 5.000000000000000104e-04 -8.400000000000000348e-04 9.468400000000000150e-01 4.889999999999999599e-04 -8.469999999999999881e-04 -9.468400000000000150e-01 1.382999999999999898e-03 1.538800000000000064e-02 2.220000000000000022e-04 1.382999999999999898e-03 1.539100000000000017e-02 -2.229999999999999994e-04 -9.190000000000000035e-04 -4.500000000000000283e-05 1.994100000000000039e-02 -9.229999999999999923e-04 -5.099999999999999960e-05 -1.993999999999999939e-02 1.533699999999999994e-02 -6.522000000000000020e-03 2.269999999999999882e-04 1.533799999999999920e-02 -6.522000000000000020e-03 -2.269999999999999882e-04 -3.853590000000000071e-01 2.222979999999999956e-01 -4.706370000000000275e-01 -3.853579999999999783e-01 2.223009999999999986e-01 4.706370000000000275e-01 6.369999999999999794e-04 -5.529999999999999976e-04 -9.999999999999999547e-07 -6.480000000000000300e-04 -4.431050000000000266e-01 -4.706940000000000013e-01 -4.884600000000000053e-02 -2.011070000000000080e-01 -9.999999999999999547e-07 -6.449999999999999570e-04 -4.431010000000000226e-01 4.706940000000000013e-01 1.954150000000000054e-01 5.560899999999999871e-02 9.999999999999999547e-07 3.459349999999999925e-01 1.978119999999999878e-01 4.989069999999999894e-01 -1.998969999999999914e-01 5.824200000000000210e-02 3.999999999999999819e-06 3.459400000000000253e-01 1.978060000000000096e-01 -4.989089999999999914e-01 1.446089999999999876e-01 1.414320000000000022e-01 -3.000000000000000076e-06 1.307999999999999918e-03 -3.984940000000000149e-01 4.989049999999999874e-01 -1.498710000000000042e-01 1.441159999999999941e-01 -9.999999999999999547e-07 1.307000000000000002e-03 -3.984960000000000169e-01 -4.989049999999999874e-01 -4.965800000000000075e-02 -1.958370000000000111e-01 9.999999999999999547e-07 3.141000000000000129e-03 2.967000000000000019e-03 -2.916099999999999942e-02 5.036199999999999705e-02 -2.010770000000000057e-01 -3.000000000000000076e-06 3.129999999999999970e-03 2.965999999999999887e-03 2.915999999999999842e-02 -1.939029999999999920e-01 5.564100000000000296e-02 1.999999999999999909e-06 -3.453129999999999811e-01 1.989710000000000090e-01 4.988639999999999741e-01 7.789999999999999616e-04 -2.579999999999999828e-04 1.999999999999999909e-06 -3.453140000000000098e-01 1.989630000000000010e-01 -4.988630000000000009e-01 3.839359999999999995e-01 2.222379999999999911e-01 -4.707020000000000093e-01 1.493800000000000128e-01 1.428669999999999940e-01 -9.999999999999999547e-07 3.839359999999999995e-01 2.222379999999999911e-01 4.707020000000000093e-01 4.918600000000000055e-02 -1.970389999999999919e-01 -1.999999999999999909e-06 -2.675999999999999993e-03 1.737000000000000046e-03 -2.916200000000000042e-02 -1.273999999999999959e-03 3.429999999999999889e-04 5.000000000000000409e-06 -2.667000000000000100e-03 1.737999999999999962e-03 2.916200000000000042e-02 -1.288999999999999998e-03 3.579999999999999741e-04 -1.999999999999999909e-06 -8.329999999999999731e-04 -4.129999999999999991e-03 -2.915900000000000089e-02 1.992929999999999979e-01 5.712099999999999816e-02 -9.999999999999999547e-07 -8.350000000000000217e-04 -4.125000000000000194e-03 2.915799999999999989e-02 -1.451679999999999915e-01 1.402819999999999900e-01 0.000000000000000000e+00