-5.644462035400000559e+02
-5.645759641900000361e+02
-5.645226550300000099e+02
-5.645861362099999496e+02
-5.645523074999999835e+02
-5.634193408600000339e+02
-5.632688222399999631e+02
-5.631401009400000248e+02
-5.631582886899999494e+02
-5.631506436900000381e+02
-5.631859189499999729e+02
-5.631526376599999821e+02
-5.630712011499999790e+02
-5.631985310100000106e+02
-5.631764484200000425e+02
