-1.632530000000000092e-01 1.839300000000000102e-01 -2.519939999999999958e-01 2.490529999999999966e-01 -1.932000000000000037e-02 1.371320000000000039e-01 -1.844889999999999863e-01 -4.612399999999999833e-02 2.701749999999999985e-01 2.631260000000000265e-01 -3.085600000000000148e-02 -1.366690000000000127e-01 6.447100000000000053e-02 -3.259690000000000087e-01 5.399799999999999739e-02 -1.880000000000000074e-02 8.729399999999999660e-02 -3.544100000000000028e-02 -8.600499999999999812e-02 -3.192929999999999935e-01 -1.998250000000000026e-01 -1.852840000000000042e-01 -1.732009999999999939e-01 3.397819999999999729e-01 -2.453940000000000010e-01 1.894240000000000090e-01 -2.233189999999999897e-01 -5.262599999999999917e-02 1.805609999999999993e-01 3.528799999999999992e-02 3.229179999999999828e-01 1.042399999999999993e-01 1.075919999999999932e-01 1.047519999999999979e-01 2.467880000000000074e-01 -1.104429999999999995e-01 2.185100000000000098e-01 -8.222500000000000642e-02 -7.753899999999999681e-02 6.822200000000000486e-02 -9.528300000000000658e-02 7.835999999999999910e-02 -7.045600000000000473e-02 6.006899999999999740e-02 1.607700000000000101e-02 -3.494075000000000042e+00 2.047212000000000032e+00 -2.102700000000000055e-02 1.233869999999999967e-01 -3.876456000000000124e+00 1.181945000000000023e+00 1.699300000000000116e-02 -3.784129000000000076e+00 -1.154797999999999991e+00 1.057639999999999969e-01 3.548604000000000092e+00 -8.009000000000000494e-03 1.771079999999999877e-01 -1.200099999999999952e-02 3.186200000000000143e-02 -3.297118999999999911e+00 -1.927986999999999895e+00 -1.486639000000000044e+00 4.364200000000000024e-02 -1.171060000000000018e-01 9.700990000000000446e-01 3.011881999999999948e+00 -1.716855999999999938e+00 3.147000000000000058e-03 3.020653999999999950e+00 1.874150999999999900e+00 9.438999999999999474e-03 -3.179680999999999980e+00 1.826014000000000026e+00 1.849800000000000055e-02 -4.713200000000000028e-02 1.264599999999999926e-02 -1.298900000000000055e-02 3.174166000000000043e+00 1.717799999999999994e+00 8.356999999999999845e-03 3.054034000000000137e+00 1.766985999999999946e+00 -1.684599999999999986e-02 -3.372106000000000048e+00 1.900495999999999963e+00 1.208936999999999928e+00 -3.342137999999999831e+00 1.905391999999999975e+00 -1.194177000000000044e+00 3.394353000000000176e+00 -2.060903000000000151e+00 1.402400000000000001e-02 -5.725199999999999734e-02 -4.090232000000000312e+00 -1.967700000000000005e-02 3.387281000000000208e+00 1.997721000000000080e+00 1.996600000000000111e-02 3.447405999999999970e+00 -1.975270000000000081e+00 -1.160199999999999947e-02 -1.756699999999999928e-02 -3.615223999999999993e+00 2.601499999999999993e-02 1.187299999999999987e-02 -6.122099999999999764e-02 -4.771999999999999853e-02 -3.338216000000000072e+00 1.875629999999999908e+00 -1.437130999999999936e+00 -3.268994999999999873e+00 1.835884999999999989e+00 1.425062999999999969e+00 -3.271131000000000011e+00 -1.894117000000000051e+00 -1.214018999999999959e+00 5.496899999999999703e-02 -3.844535000000000036e+00 1.450536000000000048e+00 -3.136470000000000091e+00 -1.717316999999999982e+00 3.005999999999999991e-03 -5.197100000000000330e-02 6.166499999999999759e-02 -2.312700000000000172e-02 1.439459999999999906e-01 3.007400000000000004e-02 -9.624930000000000430e-01 2.007300000000000056e-02 3.784534999999999982e+00 1.183793000000000095e+00 2.128400000000000084e-02 3.634363000000000010e+00 1.844900000000000012e-02 -3.123057000000000194e+00 -1.764812000000000047e+00 -1.401200000000000015e-02 3.612614999999999910e+00 2.094085999999999892e+00 -2.001999999999999873e-03 4.284600000000000214e-02 4.090898000000000145e+00 2.942999999999999870e-03 3.048373999999999917e+00 -1.843340999999999896e+00 4.878999999999999657e-03 3.052341999999999889e+00 -1.770469999999999988e+00 -1.020000000000000073e-03 -8.855799999999999783e-02 -2.625480000000000036e-01 9.540119999999999711e-01 2.371209999999999984e-01 -8.521859999999999991e-01 -6.076800000000000257e-02 -1.832910000000000095e-01 -4.642819999999999725e-01 -9.648210000000000397e-01 -7.710899999999999699e-02 3.239239999999999897e-01 -9.349290000000000100e-01 -1.996910000000000074e-01 6.375920000000000476e-01 9.476580000000000004e-01 -9.021369999999999667e-01 2.794470000000000010e-01 4.149300000000000210e-02 -5.561519999999999797e-01 -1.476800000000000057e-01 -8.079439999999999955e-01 -3.727179999999999938e-01 -3.751479999999999815e-01 4.303730000000000055e-01 5.268019999999999925e-01 -1.227599999999999941e-01 -3.746410000000000018e-01 -3.620519999999999849e-01 -3.510050000000000114e-01 4.609280000000000044e-01 6.937299999999999578e-01 6.210899999999999754e-02 3.812099999999999933e-01 -1.437579999999999969e-01 -3.114140000000000241e-01 -4.735619999999999830e-01 -4.293089999999999962e-01 -2.153800000000000159e-02 -3.895379999999999954e-01 -1.540479999999999905e-01 3.048350000000000226e-01 3.932309999999999972e-01 2.523000000000000069e-03 3.810140000000000193e-01 4.870470000000000077e-01 9.331159999999999455e-01 5.626609999999999667e-01 5.950199999999999934e-02 -4.266139999999999932e-01 2.512929999999999886e-01 -1.548599999999999977e-02 8.281640000000000112e-01 8.826100000000000612e-02 -6.059900000000000009e-02 -3.923150000000000248e-01 3.775729999999999920e-01 1.732500000000000012e-02 -8.414000000000000368e-01 5.598090000000000011e-01 -4.989899999999999891e-02 7.726499999999999480e-01 -2.665420000000000011e-01 -6.082300000000000206e-02 8.822229999999999794e-01 -5.456299999999999484e-01 6.338599999999999790e-02
2.052589999999999970e-01 2.390019999999999922e-01 -1.206300000000000081e-02 2.497790000000000010e-01 1.248060000000000003e-01 -2.171999999999999886e-03 1.424739999999999895e-01 1.480100000000000027e-01 1.546000000000000065e-03 2.392009999999999970e-01 1.519669999999999910e-01 -4.937219999999999942e-01 2.734269999999999756e-01 -2.519199999999999912e-02 3.542100000000000110e-02 9.232600000000000529e-02 -9.342999999999999916e-02 4.910829999999999917e-01 3.114210000000000034e-01 6.373399999999999899e-02 -3.854580000000000228e-01 -2.121030000000000137e-01 -6.683300000000000352e-02 -8.024799999999999989e-02 -1.149099999999999948e-02 -1.643320000000000058e-01 1.700299999999999867e-01 -3.553919999999999857e-01 -1.003659999999999969e-01 5.722200000000000203e-02 -9.650799999999999657e-02 -1.802860000000000018e-01 5.560099999999999765e-02 -5.616199999999999665e-02 -1.582199999999999926e-02 1.582000000000000073e-03 -2.356499999999999914e-02 -1.691000000000000003e-01 1.722549999999999915e-01 -5.992200000000000304e-02 -1.247100000000000014e-01 -1.550499999999999969e-02 -3.464847999999999928e+00 2.067800999999999778e+00 1.629000000000000023e-03 3.464494999999999880e+00 2.050260999999999889e+00 -4.501999999999999925e-03 2.722600000000000020e-02 2.331199999999999939e-02 -1.745400000000000076e-02 -1.349440000000000084e-01 -2.828999999999999918e-03 1.069200000000000012e-02 3.354241000000000028e+00 -1.888254000000000099e+00 1.499600999999999962e+00 2.119899999999999909e-02 -7.383900000000000186e-02 -1.002634999999999943e+00 6.696699999999999875e-02 -3.854391999999999818e+00 -1.203650000000000109e+00 -3.209747999999999823e+00 1.963109999999999911e+00 1.210345000000000004e+00 -3.097350000000000048e+00 1.804915999999999965e+00 3.133099999999999774e-02 3.164579999999999949e+00 -1.707969999999999988e+00 -2.000299999999999995e-02 -3.128276000000000057e+00 -1.801879999999999926e+00 -3.183400000000000118e-02 3.203863000000000127e+00 1.836144999999999916e+00 3.918900000000000161e-02 2.984661000000000008e+00 1.864192999999999989e+00 5.702100000000000224e-02 -3.184300000000000325e-02 -3.691457000000000210e+00 -6.027699999999999725e-02 3.261852000000000196e+00 1.847018999999999966e+00 -1.207422999999999913e+00 -3.336638000000000215e+00 1.892179000000000055e+00 1.202528999999999959e+00 6.048000000000000424e-03 -4.825999999999999734e-02 -2.008199999999999916e-02 -3.236053000000000068e+00 -1.826823000000000086e+00 6.931999999999999794e-03 3.257464000000000137e+00 1.847861999999999894e+00 -1.428795000000000037e+00 3.324066000000000187e+00 1.879653000000000018e+00 1.428231000000000028e+00 3.232641999999999793e+00 1.881669000000000036e+00 -1.429238000000000008e+00 -4.364300000000000124e-02 -3.956766000000000005e+00 1.439327999999999941e+00 3.006616000000000177e+00 1.744121999999999950e+00 9.116000000000000839e-03 -9.734900000000000497e-02 3.599676999999999794e+00 1.063000000000000056e-02 -3.302321000000000062e+00 -1.917421999999999960e+00 1.180311000000000110e+00 -3.232100000000000251e-02 -3.769455999999999918e+00 -1.469514999999999905e+00 -3.244375999999999927e+00 -1.873640999999999890e+00 -1.237579999999999902e+00 -3.325854000000000088e+00 -1.882802000000000087e+00 1.251516000000000073e+00 -3.272459000000000007e+00 -1.860135000000000094e+00 -1.224571999999999994e+00 1.097799999999999991e-02 3.867939999999999934e+00 1.244471000000000105e+00 8.959399999999999309e-02 -4.067000000000000302e-03 -1.947199999999999973e-02 -3.083905999999999814e+00 1.815644000000000036e+00 -1.355000000000000085e-03 5.276600000000000040e-02 4.414300000000000168e-02 9.356910000000000505e-01 3.376093000000000011e+00 -1.853431999999999968e+00 -1.190142000000000033e+00 5.667099999999999915e-02 4.617099999999999677e-02 1.048766000000000087e+00 4.360699999999999993e-02 -8.464900000000000202e-02 -1.062322999999999906e+00 9.808850000000000069e-01 4.030250000000000221e-01 4.538000000000000367e-03 2.520669999999999855e-01 -1.694100000000000120e-02 -2.453999999999999931e-02 3.284400000000000097e-01 6.411170000000000480e-01 4.714659999999999962e-01 3.640289999999999915e-01 -2.811299999999999910e-02 8.550269999999999815e-01 4.815590000000000148e-01 6.312680000000000513e-01 -4.661710000000000020e-01 -6.793169999999999487e-01 -3.919230000000000214e-01 9.483400000000000163e-02 -7.122330000000000050e-01 -6.256760000000000099e-01 -3.949690000000000145e-01 -3.318240000000000078e-01 -1.773170000000000024e-01 5.551660000000000483e-01 -3.077299999999999827e-02 -3.703420000000000045e-01 -5.348760000000000181e-01 -3.967809999999999948e-01 -5.192600000000000549e-01 -6.961000000000000520e-02 -3.304699999999999860e-01 -2.159679999999999933e-01 -4.688959999999999795e-01 -1.906130000000000047e-01 1.379479999999999873e-01 4.740199999999999969e-01 -3.989650000000000141e-01 4.634030000000000094e-01 -5.707700000000000273e-02 4.853339999999999876e-01 -1.660470000000000002e-01 -7.186599999999999933e-02 -1.400900000000000062e-02 8.419699999999999407e-02 -9.646810000000000107e-01 3.097900000000000098e-01 -1.279949999999999977e-01 8.173300000000000010e-02 -7.624530000000000474e-01 9.822599999999999387e-02 9.575390000000000290e-01 9.439000000000000168e-02 4.845369999999999955e-01 4.059000000000000108e-03 2.992299999999999960e-01 9.682499999999999440e-02 -4.299649999999999861e-01 -2.111220000000000041e-01 -1.112319999999999975e-01 9.119789999999999841e-01 -2.420999999999999888e-02 -1.341299999999999958e-02 1.093599999999999954e-02 -1.753979999999999984e-01 -4.150600000000000123e-02 -9.106929999999999747e-01
-4.164700000000000346e-02 3.311239999999999739e-01 2.285699999999999885e-02 1.368169999999999942e-01 -1.074220000000000036e-01 1.544240000000000057e-01 -2.766800000000000162e-02 1.467019999999999991e-01 -2.266500000000000112e-02 1.126110000000000028e-01 3.755800000000000111e-02 -1.791830000000000089e-01 2.083240000000000092e-01 -6.389200000000000434e-02 2.324380000000000057e-01 1.339789999999999870e-01 5.607999999999999791e-02 -2.160410000000000108e-01 2.584640000000000271e-01 -1.395770000000000066e-01 -1.335379999999999900e-01 -2.349779999999999924e-01 7.112000000000000266e-03 -1.309009999999999896e-01 -2.832859999999999823e-01 -6.897399999999999365e-02 2.194359999999999922e-01 1.682220000000000104e-01 -1.313469999999999915e-01 -5.173599999999999727e-02 1.423599999999999866e-01 1.962160000000000015e-01 1.665899999999999881e-01 -3.566400000000000126e-01 1.785400000000000043e-01 1.778199999999999920e-02 2.147699999999999956e-02 1.949999999999999910e-03 -7.553300000000000292e-02 -2.105599999999999833e-02 -1.507950000000000124e-01 5.901599999999999902e-02 -3.490619000000000138e+00 2.016226000000000074e+00 -5.930400000000000255e-02 3.548125000000000195e+00 2.022918999999999912e+00 5.708099999999999979e-02 -3.395782000000000078e+00 -1.864117000000000024e+00 1.476085000000000091e+00 -3.427042999999999839e+00 1.972391999999999923e+00 -1.219878999999999936e+00 3.442527000000000115e+00 -2.013443999999999789e+00 1.488866000000000023e+00 -7.509000000000000050e-03 -3.917583000000000037e+00 -1.237200999999999995e+00 6.715500000000000635e-02 -3.606180000000000163e+00 9.287000000000000116e-03 -3.045202000000000186e+00 1.869094000000000033e+00 -1.591499999999999859e-02 1.627470000000000028e-01 -4.376800000000000135e-02 9.844359999999999777e-01 7.852699999999999958e-02 -3.831284000000000134e+00 -1.222315999999999958e+00 1.111999999999999968e-02 3.873841000000000090e+00 -1.526928999999999981e+00 3.362693999999999850e+00 1.958277000000000045e+00 1.258590000000000098e+00 2.925276999999999905e+00 -1.738181999999999894e+00 6.118000000000000174e-03 -1.280509999999999982e-01 -3.621210000000000040e+00 -1.051099999999999951e-02 3.105443000000000175e+00 1.802106999999999903e+00 -3.033100000000000032e-02 3.133704999999999963e+00 1.779485999999999901e+00 1.969600000000000170e-02 -3.372316999999999787e+00 1.891963000000000061e+00 1.218304999999999971e+00 -3.391554999999999875e+00 1.908701999999999899e+00 -1.207151000000000085e+00 3.278417000000000137e+00 1.824254000000000042e+00 -1.471781000000000006e+00 3.340146999999999977e+00 -1.955486000000000057e+00 1.185808999999999891e+00 3.418191999999999897e+00 2.004364999999999952e+00 2.829500000000000071e-02 -1.477799999999999947e-01 -4.483999999999999792e-02 -2.498799999999999980e-02 -3.271799999999999708e-02 -3.336599999999999983e-02 1.056999999999999997e-03 -2.314899999999999944e-02 3.601443999999999868e+00 1.487000000000000040e-03 -3.272394999999999943e+00 1.859331000000000067e+00 1.482420000000000071e+00 -3.328164999999999818e+00 -1.950723999999999902e+00 -1.187611999999999890e+00 8.490499999999999436e-02 -3.555652999999999953e+00 1.080399999999999937e-02 5.095700000000000229e-02 3.552948000000000217e+00 -1.589799999999999894e-02 -3.380672999999999817e+00 -1.779859000000000080e+00 -1.252124000000000015e+00 3.267068000000000083e+00 -1.854622999999999911e+00 1.256054999999999922e+00 -4.467800000000000243e-02 -2.268399999999999930e-02 3.273999999999999827e-02 -1.810300000000000104e-02 1.397740000000000093e-01 -2.762799999999999978e-02 -3.053932000000000091e+00 1.757185999999999915e+00 -3.813400000000000123e-02 1.678870000000000084e-01 -7.172299999999999509e-02 4.774400000000000172e-02 3.553774000000000211e+00 -1.970053999999999972e+00 5.161999999999999922e-02 -3.454757999999999996e+00 -2.020599999999999952e+00 -5.288899999999999851e-02 7.025240000000000373e-01 4.046999999999999903e-02 -3.628290000000000126e-01 -4.965100000000000069e-01 1.653640000000000110e-01 4.150429999999999953e-01 -1.840519999999999934e-01 5.118869999999999809e-01 8.249640000000000306e-01 5.723150000000000182e-01 -5.826789999999999470e-01 3.575519999999999810e-01 2.859599999999999989e-02 4.167989999999999751e-01 -8.243530000000000024e-01 -6.022330000000000183e-01 -1.436820000000000042e-01 3.834800000000000014e-02 -8.974309999999999787e-01 4.470000000000000232e-04 3.522660000000000236e-01 -2.772870000000000057e-01 -4.383239999999999914e-01 -6.276199999999999835e-02 -6.986399999999999555e-02 5.099700000000000066e-02 4.293069999999999942e-01 -2.403669999999999973e-01 -2.265020000000000089e-01 -4.991349999999999953e-01 1.253899999999999980e-02 1.718199999999999936e-02 -4.295740000000000114e-01 3.677790000000000226e-01 1.320070000000000132e-01 -3.911720000000000197e-01 6.208299999999999930e-02 -3.831019999999999981e-01 7.773099999999999454e-02 6.908130000000000104e-01 -5.615860000000000296e-01 -4.919259999999999744e-01 3.036690000000000222e-01 -2.130160000000000109e-01 -7.535000000000000031e-02 2.935249999999999804e-01 -8.710539999999999949e-01 5.098120000000000429e-01 -8.881999999999999271e-03 -4.138399999999999718e-02 7.375500000000000111e-02 6.204049999999999843e-01 4.190280000000000116e-01 3.609500000000000208e-02 -4.675380000000000091e-01 4.035369999999999790e-01 8.544040000000000523e-01 7.386880000000000113e-01 3.962359999999999771e-01 -3.143499999999999767e-02 -4.096489999999999854e-01 1.867989999999999928e-01 -8.550299999999999567e-01 -9.403359999999999497e-01 4.883709999999999996e-01 -2.456399999999999903e-02
-5.335899999999999671e-02 9.860700000000000021e-02 3.994899999999999840e-02 -9.127499999999999503e-02 6.232100000000000140e-02 3.401279999999999859e-01 -7.753599999999999381e-02 2.651399999999999868e-01 -7.152200000000000224e-02 -1.523399999999999928e-02 1.845980000000000121e-01 -9.110999999999999308e-03 4.530900000000000205e-02 -1.022070000000000062e-01 2.714250000000000274e-01 2.238799999999999957e-01 1.912119999999999931e-01 -2.658900000000000152e-01 1.316720000000000113e-01 -2.440070000000000017e-01 5.409200000000000119e-02 -3.921319999999999806e-01 -1.371400000000000050e-02 2.617050000000000209e-01 -1.353900000000000103e-01 3.503900000000000070e-02 -2.110259999999999914e-01 -1.452440000000000120e-01 -1.145410000000000039e-01 4.519399999999999806e-02 1.444269999999999998e-01 9.680400000000000116e-02 -3.960449999999999804e-01 2.316560000000000008e-01 8.930000000000000437e-02 1.169639999999999985e-01 -5.576699999999999713e-02 5.926000000000000018e-02 -8.311699999999999644e-02 6.226799999999999696e-02 1.685299999999999992e-02 -1.686519999999999964e-01 -3.452469999999999928e+00 2.007874000000000159e+00 -5.035200000000000092e-02 3.460783000000000165e+00 2.016808000000000156e+00 3.922400000000000192e-02 -3.383662000000000170e+00 -1.866670000000000051e+00 1.471098000000000017e+00 -1.629900000000000099e-02 3.818808000000000202e+00 -1.494672999999999918e+00 1.634899999999999895e-02 -3.804867000000000221e+00 1.189586999999999950e+00 8.395500000000000185e-02 -3.825460000000000083e+00 -1.186101999999999990e+00 3.147000999999999937e+00 1.757130999999999998e+00 5.359000000000000048e-03 -3.078631000000000117e+00 1.787786000000000097e+00 -1.252799999999999921e-02 3.418401999999999941e+00 1.819682999999999939e+00 -1.220915999999999890e+00 -3.349689000000000139e+00 -1.931680000000000064e+00 1.462018999999999957e+00 -7.202200000000000268e-02 1.153460000000000041e-01 -5.351899999999999713e-02 -3.732000000000000074e-03 -3.516674000000000078e+00 5.256199999999999761e-02 -1.131100000000000022e-01 3.833734999999999893e+00 1.464472999999999914e+00 -1.025520000000000043e-01 -1.218749999999999972e-01 -9.644230000000000302e-01 -2.163199999999999845e-02 -6.396999999999999909e-02 -1.131799999999999994e-02 3.164585999999999899e+00 1.730979000000000045e+00 -1.623799999999999896e-02 6.042000000000000148e-02 -3.854152000000000022e+00 1.239181000000000088e+00 -9.732999999999999985e-02 7.112100000000000366e-02 -9.860069999999999668e-01 -9.027000000000000302e-03 -1.223299999999999943e-01 -1.780310000000000059e+00 3.306595000000000173e+00 -1.926644999999999941e+00 1.229016000000000108e+00 3.312844000000000122e+00 2.003296999999999883e+00 4.256000000000000061e-02 -8.309700000000000419e-02 6.876100000000000267e-02 -4.387400000000000327e-02 -6.352199999999999513e-02 -6.721299999999999497e-02 -1.020100000000000000e-02 3.884800000000000059e-02 3.547546000000000088e+00 5.921000000000000048e-03 -3.276797000000000182e+00 -1.958496000000000015e+00 1.240594999999999892e+00 -3.297044999999999781e+00 1.857609999999999983e+00 -1.467678000000000038e+00 -3.195085000000000175e+00 -1.892549999999999955e+00 1.244545000000000012e+00 3.274541999999999842e+00 -1.819731999999999905e+00 -1.196682999999999941e+00 -3.147403000000000173e+00 -1.721330999999999944e+00 -3.750699999999999867e-02 4.768000000000000016e-02 -2.395500000000000060e-02 5.476899999999999824e-02 3.297534000000000187e+00 -1.930519000000000096e+00 -1.191483000000000070e+00 8.902999999999999456e-03 -6.642000000000000334e-03 9.298859999999999904e-01 3.774700000000000277e-02 3.896494999999999820e+00 -1.221098000000000017e+00 -3.231345999999999830e+00 -1.887564999999999937e+00 1.210469999999999935e+00 3.200572000000000195e+00 1.782674000000000092e+00 4.401700000000000057e-02 -8.428599999999999981e-02 -4.091199999999999698e-02 -3.389099999999999752e-02 4.619280000000000053e-01 1.015790000000000026e-01 -7.333199999999999719e-01 -8.006499999999999728e-02 5.813399999999999818e-02 -7.467999999999999812e-03 -2.708760000000000057e-01 1.498569999999999902e-01 8.522549999999999848e-01 5.155400000000000260e-02 -6.611390000000000322e-01 -7.054199999999999360e-02 1.991300000000000014e-01 2.766730000000000023e-01 -8.621109999999999607e-01 -7.325900000000000467e-02 2.789099999999999913e-02 4.089500000000000079e-02 -6.149170000000000469e-01 3.599300000000000277e-01 -5.031660000000000021e-01 -8.188800000000000245e-02 4.916809999999999792e-01 -3.950800000000000145e-02 -4.153800000000000270e-01 1.341160000000000130e-01 4.235570000000000168e-01 -2.724700000000000039e-02 -3.334820000000000007e-01 -5.705699999999999661e-02 -9.985700000000000132e-02 -4.831300000000000039e-01 4.922090000000000076e-01 -4.018800000000000150e-02 -4.030489999999999906e-01 4.550500000000000100e-01 2.417719999999999869e-01 -5.112630000000000230e-01 -5.035370000000000124e-01 -5.053180000000000449e-01 -4.611270000000000091e-01 -4.511740000000000195e-01 1.599500000000000088e-01 2.335710000000000008e-01 8.916060000000000096e-01 4.193239999999999745e-01 -1.391500000000000029e-02 -3.416150000000000020e-01 6.912890000000000423e-01 4.148910000000000098e-01 -9.294970000000000176e-01 2.235149999999999915e-01 8.592800000000000438e-02 9.409129999999999994e-01 -3.168070000000000053e-01 2.900260000000000060e-01 1.324019999999999919e-01 3.086309999999999887e-01 1.757970000000000088e-01 8.641459999999999697e-01 -2.761239999999999806e-01 -2.776919999999999944e-01 4.222310000000000230e-01 3.735319999999999752e-01 -1.235499999999999966e-02 -8.868409999999999904e-01
2.018790000000000029e-01 2.702120000000000077e-01 -2.424939999999999873e-01 1.316879999999999995e-01 1.576710000000000056e-01 1.409980000000000122e-01 -5.315099999999999686e-02 2.972670000000000035e-01 2.412819999999999965e-01 1.540700000000000125e-01 6.668799999999999728e-02 -3.793690000000000118e-01 2.985220000000000096e-01 -1.978310000000000068e-01 3.670059999999999989e-01 3.463640000000000052e-01 7.295000000000000095e-02 -2.886059999999999737e-01 -2.415269999999999917e-01 1.618999999999999884e-01 -1.818450000000000066e-01 -5.675000000000000183e-02 -7.089900000000000369e-02 -4.139799999999999730e-02 1.052130000000000010e-01 -2.880999999999999880e-02 2.075549999999999895e-01 1.074930000000000052e-01 -7.624499999999999333e-02 -2.752599999999999839e-02 -2.027279999999999915e-01 -1.379569999999999963e-01 3.293000000000000094e-02 -3.497999999999999998e-01 -1.757489999999999886e-01 2.016820000000000002e-01 -1.330520000000000036e-01 1.359589999999999965e-01 -3.659300000000000053e-02 -2.135410000000000086e-01 -1.271339999999999970e-01 3.722299999999999914e-02 -2.956100000000000047e-02 3.882883000000000084e+00 -1.055399999999999915e-02 -2.635699999999999849e-02 -5.535600000000000243e-02 1.140000000000000041e-02 -3.339300000000000157e+00 -1.875000000000000000e+00 1.497651999999999983e+00 -4.239600000000000313e-02 6.015000000000000381e-03 -9.969609999999999861e-01 3.336691000000000074e+00 -1.928541999999999978e+00 1.474159999999999915e+00 -4.562800000000000189e-02 -1.481900000000000057e-02 -9.393270000000000231e-01 4.492999999999999772e-02 -6.485699999999999799e-02 3.151000000000000155e-03 3.161042000000000129e+00 1.777446999999999999e+00 8.300000000000000086e-03 1.164540000000000020e-01 -3.821972000000000147e+00 -1.253101000000000020e+00 3.312472999999999779e+00 1.939702000000000037e+00 1.243511000000000033e+00 1.478900000000000006e-02 3.709343000000000057e+00 -2.152899999999999953e-02 3.141995999999999789e+00 1.775725999999999916e+00 3.372800000000000104e-02 -7.143099999999999450e-02 -8.670300000000000229e-02 3.967000000000000040e-03 -3.158431999999999906e+00 -1.834116000000000080e+00 -1.478999999999999933e-02 3.100217999999999918e+00 -1.836194000000000104e+00 -1.792200000000000043e-02 -3.125410000000000021e+00 -1.814027999999999974e+00 1.201000000000000028e-03 -3.187310999999999783e+00 1.943210000000000104e+00 -1.853999999999999962e-03 -3.115334999999999965e+00 -1.774737000000000009e+00 -4.900999999999999975e-03 3.338678999999999952e+00 1.881113000000000035e+00 -1.445202000000000098e+00 3.343863999999999947e+00 -1.857547999999999977e+00 1.173432000000000031e+00 3.256714000000000109e+00 1.927070000000000061e+00 -1.482772999999999897e+00 -8.743700000000000083e-02 7.110900000000000554e-02 9.704530000000000101e-01 3.057484000000000091e+00 1.749007999999999896e+00 -3.937000000000000395e-03 3.164100000000000246e-02 3.545456000000000163e+00 2.372799999999999909e-02 -3.297001999999999988e+00 -1.908036999999999983e+00 -1.237873000000000001e+00 -3.363570999999999867e+00 1.897550999999999988e+00 1.492420999999999998e+00 -3.070917999999999815e+00 -1.748769999999999936e+00 4.009900000000000270e-02 3.052589000000000219e+00 -1.782086000000000059e+00 -5.342500000000000027e-02 -3.302986000000000200e+00 -1.907045000000000101e+00 -1.225961999999999996e+00 -5.203100000000000086e-02 -8.129400000000000515e-02 9.849020000000000552e-01 -6.658999999999999989e-03 5.294200000000000295e-02 4.859499999999999931e-02 4.750100000000000156e-02 7.792999999999999927e-02 -5.400400000000000339e-02 4.587800000000000211e-02 2.785199999999999829e-02 9.913140000000000285e-01 -3.231329999999999814e+00 -1.907672000000000034e+00 -1.229203999999999963e+00 5.262599999999999917e-02 -3.119299999999999851e-02 -3.693999999999999801e-03 1.276099999999999977e-02 -1.464000000000000024e-02 -3.396999999999999846e-03 6.023169999999999913e-01 -8.263299999999999812e-02 -3.464700000000000002e-01 3.373299999999999910e-02 -3.392990000000000173e-01 8.620539999999999869e-01 2.868640000000000079e-01 1.258410000000000084e-01 -8.362789999999999946e-01 3.226129999999999831e-01 7.376880000000000104e-01 4.330530000000000213e-01 4.798160000000000203e-01 3.565600000000000019e-02 7.339320000000000288e-01 2.301199999999999912e-01 6.132900000000000018e-01 -4.510290000000000132e-01 4.646299999999999736e-02 3.130899999999999656e-02 -8.038809999999999567e-01 2.288330000000000086e-01 2.958580000000000099e-01 8.000869999999999926e-01 -4.064260000000000095e-01 1.444030000000000036e-01 4.168279999999999763e-01 -2.039900000000000047e-02 -3.395050000000000012e-01 7.172399999999999609e-02 -8.419000000000000095e-02 -4.706000000000000183e-01 -7.827000000000000624e-03 2.858160000000000145e-01 -2.060430000000000039e-01 -6.289000000000000319e-03 7.419299999999999506e-02 3.955580000000000207e-01 -3.748920000000000030e-01 5.737550000000000150e-01 4.964120000000000199e-01 3.831600000000000006e-01 -1.802499999999999936e-02 -2.538599999999999884e-02 -4.646080000000000210e-01 -2.499429999999999985e-01 -1.399849999999999983e-01 -4.446180000000000132e-01 -1.935840000000000061e-01 -3.813860000000000028e-01 4.533599999999999852e-01 1.056269999999999987e-01 -3.890179999999999749e-01 3.428699999999999803e-02 -4.378099999999999770e-01 -3.892200000000000104e-01 -4.558929999999999927e-01 -1.929569999999999896e-01 -6.322980000000000267e-01 -2.287300000000000097e-02 -6.237169999999999659e-01 9.421400000000000607e-02 5.268699999999999495e-01 -1.053010999999999919e+00 1.573730000000000129e-01 -5.331489999999999840e-01