-5.743125286800000140e+02
-5.744509899500000074e+02
-5.744861858000000439e+02
-5.745441979700000275e+02
-5.745254079799999545e+02
-5.721511415500000339e+02
-5.719612035400000423e+02
-5.721056137099999432e+02
-5.722095122199999651e+02
-5.722927164100000255e+02
-5.720620959100000391e+02
-5.721385219300000244e+02
-5.720264105200000131e+02
-5.720863802999999734e+02
-5.722024814899999683e+02
