-2.207669999999999910e-01 1.434700000000000038e-02 -1.687279999999999891e-01 4.582699999999999968e-02 -1.727740000000000109e-01 1.625570000000000070e-01 1.069380000000000053e-01 -4.686900000000000094e-02 -1.481949999999999934e-01 -4.100000000000000172e-02 3.452100000000000307e-02 2.205700000000000022e-02 -6.231899999999999940e-02 -6.109300000000000147e-02 1.598459999999999881e-01 3.214499999999999996e-02 -7.950999999999999734e-03 2.507500000000000007e-02 -4.477500000000000230e-02 -9.807899999999999952e-02 -2.637000000000000108e-02 -2.604199999999999918e-02 -2.052000000000000005e-03 1.243999999999999967e-02 -3.335561000000000220e+00 -1.875690999999999997e+00 1.477514999999999912e+00 -3.277569999999999872e+00 1.940190000000000081e+00 -1.210684000000000093e+00 7.092400000000000093e-02 -3.545198000000000071e+00 2.407400000000000165e-02 6.263000000000000338e-03 -3.513949999999999907e+00 -2.501499999999999904e-02 -3.243670999999999971e+00 1.939931999999999990e+00 -1.235953000000000079e+00 6.747799999999999632e-02 2.663899999999999949e-02 9.916679999999999939e-01 3.792000000000000232e-02 -1.788400000000000059e-02 -2.355099999999999902e-02 -3.725000000000000012e-03 -4.560399999999999870e-02 2.336900000000000088e-02 -8.396000000000000685e-03 3.875100000000000072e-02 -4.685999999999999888e-02 4.872499999999999748e-02 7.204999999999999599e-03 4.418500000000000205e-02 -6.030300000000000243e-02 -3.613000000000000239e-02 3.481399999999999773e-02 -5.559700000000000059e-02 3.003799999999999873e-02 -3.327999999999999708e-02 3.069237999999999911e+00 1.759640000000000093e+00 -3.022100000000000133e-02 3.040500000000000203e+00 1.781932999999999989e+00 2.087200000000000166e-02 -2.750199999999999867e-02 -2.675800000000000053e-02 1.019376000000000060e+00 -4.476999999999999730e-02 2.070699999999999971e-02 -1.007085000000000008e+00 3.029860000000000220e+00 1.758809000000000067e+00 -2.233600000000000169e-02 -4.106100000000000028e-02 -9.535899999999999932e-02 2.083600000000000035e-02 3.519195999999999991e+00 -2.023460000000000036e+00 1.466699999999999948e-02 -6.006000000000000054e-03 -6.288199999999999346e-02 -1.683899999999999980e-02 -3.188013000000000208e+00 -1.881383000000000028e+00 -9.590000000000000000e-04 5.464100000000000207e-02 3.563953000000000149e+00 6.290000000000000018e-04 -5.727999999999999585e-03 3.824425999999999881e+00 -1.219894999999999952e+00 3.316298000000000190e+00 -1.887294000000000027e+00 1.213354000000000044e+00 -3.063610000000000166e+00 -1.775435000000000096e+00 1.358499999999999985e-02 1.583700000000000038e-02 5.602800000000000141e-02 -1.114500000000000039e-02 3.322200000000000153e-02 3.655568000000000151e+00 -2.171500000000000166e-02 9.235999999999999419e-03 3.563762000000000096e+00 2.148399999999999962e-02 3.216976999999999975e+00 -1.764008000000000020e+00 9.702000000000000554e-03 1.774900000000000089e-02 -3.563807999999999865e+00 -8.906000000000000721e-03 -3.697099999999999692e-02 3.651133999999999880e+00 -2.155999999999999930e-03 3.035900000000000057e-02 -4.581400000000000056e-02 2.170000000000000054e-03 3.144662999999999986e+00 -1.840978000000000003e+00 1.005099999999999917e-02 -6.474699999999999900e-02 -9.225999999999999826e-03 -1.688399999999999970e-02 -3.151892999999999834e+00 -1.832152000000000003e+00 2.462200000000000152e-02 -3.104829000000000061e+00 -1.744787000000000088e+00 -3.013899999999999912e-02 -4.986909999999999954e-01 -2.622800000000000131e-02 4.014690000000000203e-01 -1.714000000000000029e-03 -8.208830000000000293e-01 4.205099999999999810e-02 -6.608760000000000190e-01 4.222200000000000258e-02 -6.443000000000000116e-02 -4.047900000000000109e-02 -5.636100000000000554e-01 -4.278499999999999664e-02 -4.273950000000000249e-01 -1.733000000000000165e-02 5.862200000000000050e-02 -3.899850000000000261e-01 1.751729999999999954e-01 -4.189300000000000246e-01 1.290290000000000048e-01 2.197030000000000094e-01 -1.949000000000000038e-02 4.764000000000000005e-03 7.345699999999999452e-02 7.209000000000000130e-03 -4.340820000000000234e-01 -2.354719999999999869e-01 4.975990000000000135e-01 2.701399999999999982e-02 -9.884099999999999830e-02 -7.158000000000000300e-03 -4.876320000000000099e-01 2.459999999999999947e-03 -5.043980000000000130e-01 5.890800000000000203e-02 -1.715200000000000058e-02 3.143599999999999867e-02 7.686900000000000677e-02 6.175009999999999666e-01 -3.679099999999999732e-02 1.109279999999999988e-01 2.277349999999999930e-01 -2.966699999999999893e-02 6.049399999999999916e-02 6.167399999999999549e-01 3.785499999999999976e-02 2.142550000000000010e-01 -4.589210000000000234e-01 -4.816070000000000073e-01 3.716690000000000271e-01 -6.409550000000000525e-01 4.890010000000000190e-01 7.030049999999999910e-01 3.904520000000000213e-01 1.965000000000000167e-03 1.371140000000000136e-01 6.091440000000000188e-01 4.579130000000000145e-01 5.032219999999999471e-01 3.929730000000000167e-01 1.508000000000000009e-03 1.339990000000000070e-01 6.122889999999999722e-01 -4.570210000000000106e-01 5.781960000000000433e-01 -1.403300000000000103e-01 4.398460000000000147e-01 -7.862099999999999644e-02 2.209909999999999930e-01 -1.452900000000000025e-02 3.667839999999999989e-01 -2.415750000000000119e-01 -4.486939999999999817e-01 3.605260000000000131e-01 1.951759999999999884e-01 -4.841790000000000260e-01 -4.487360000000000237e-01 -2.984289999999999998e-01 7.334000000000000241e-03 3.594950000000000090e-01 -1.484159999999999924e-01 4.930519999999999903e-01 -5.271989999999999732e-01 -3.788369999999999793e-01 7.870000000000000476e-04
5.691800000000000331e-02 2.334309999999999996e-01 -3.471310000000000229e-01 -6.634500000000000119e-02 1.254780000000000062e-01 2.074930000000000108e-01 3.893300000000000233e-02 -6.126700000000000201e-02 -3.790879999999999805e-01 -3.755800000000000111e-02 -2.382350000000000023e-01 -1.852600000000000080e-02 -1.801929999999999921e-01 3.176999999999999963e-02 2.155870000000000009e-01 1.221789999999999959e-01 1.824939999999999896e-01 1.755289999999999906e-01 1.285530000000000006e-01 9.336400000000000254e-02 -7.721000000000000432e-03 1.077530000000000016e-01 -5.891699999999999715e-02 1.850600000000000023e-01 5.059600000000000208e-02 3.829985000000000195e+00 1.478911000000000087e+00 -4.195399999999999824e-02 -2.822900000000000062e-02 -9.490979999999999972e-01 -3.241713999999999984e+00 -1.849868000000000068e+00 1.482939000000000007e+00 2.181699999999999959e-02 -4.230300000000000032e-02 -9.697299999999999809e-01 7.806299999999999351e-02 -3.540064999999999795e+00 -1.667199999999999932e-02 6.168599999999999778e-02 1.211210000000000064e-01 2.471900000000000139e-02 -3.180575000000000152e+00 1.694601999999999942e+00 3.629199999999999787e-02 3.602700000000000347e-02 -1.128450000000000009e-01 -3.376400000000000234e-02 -9.144499999999999851e-02 -3.613586000000000187e+00 -4.764399999999999885e-02 3.034676999999999847e+00 1.816014999999999935e+00 5.924700000000000105e-02 2.432000000000000134e-02 1.112319999999999975e-01 -1.732799999999999965e-02 -4.722500000000000309e-02 4.357500000000000262e-02 2.354499999999999996e-02 3.263599999999999834e+00 1.814046999999999965e+00 -1.230841000000000074e+00 3.280099999999999683e-02 -1.552699999999999914e-02 9.630159999999999831e-01 3.303727999999999998e+00 1.866403999999999952e+00 -1.206922000000000050e+00 -3.305705000000000116e+00 1.871318999999999955e+00 1.183300999999999936e+00 -8.778500000000000192e-02 8.733399999999999497e-02 2.392199999999999882e-02 -9.105000000000000246e-03 -3.499455000000000204e+00 -1.928399999999999906e-02 3.304391999999999996e+00 1.893134000000000094e+00 -1.436542999999999903e+00 -3.313095000000000123e+00 -1.884144000000000041e+00 1.167982999999999993e+00 3.246161999999999992e+00 -1.882007999999999903e+00 -1.216860999999999970e+00 -3.259501999999999899e+00 -1.866432000000000091e+00 1.204831999999999903e+00 -7.197399999999999631e-02 3.476523999999999948e+00 1.946799999999999919e-02 2.018199999999999855e-02 -7.640900000000000469e-02 -2.352599999999999830e-02 -3.229871000000000159e+00 -1.854959999999999942e+00 -1.241649000000000003e+00 9.380000000000000317e-04 5.387200000000000322e-02 9.959959999999999924e-01 -3.009330999999999978e+00 -1.719255999999999895e+00 2.168399999999999841e-02 1.268019999999999980e-01 1.182020000000000015e-01 -3.493799999999999684e-02 4.503100000000000158e-02 2.222000000000000017e-03 1.456000000000000003e-02 4.472099999999999687e-02 -7.547800000000000342e-02 -2.408599999999999977e-02 -1.156230000000000036e-01 8.710999999999999993e-03 2.828999999999999918e-02 3.066629999999999967e+00 1.752461999999999964e+00 -1.793200000000000002e-02 5.201399999999999774e-02 6.643899999999999806e-02 9.919240000000000279e-01 3.245633999999999908e+00 -1.919896999999999965e+00 -1.233351000000000086e+00 6.905999999999999812e-03 -1.415839999999999876e-01 -3.375899999999999734e-02 -7.610500000000000598e-02 3.520270000000000010e+00 3.590700000000000142e-02 -1.540420000000000122e-01 2.414399999999999880e-01 8.372150000000000425e-01 2.373899999999999968e-02 5.573999999999999962e-03 -4.252199999999999869e-01 -6.745379999999999709e-01 -3.495829999999999771e-01 8.707219999999999960e-01 -1.220789999999999931e-01 -2.190840000000000010e-01 3.181500000000000300e-02 2.624520000000000186e-01 -2.811460000000000070e-01 -4.440910000000000135e-01 1.174000000000000044e-02 3.685459999999999847e-01 4.588610000000000189e-01 -2.147320000000000062e-01 -5.082959999999999701e-01 4.486499999999999932e-01 6.901100000000000290e-02 2.347170000000000090e-01 -4.695469999999999922e-01 -5.109590000000000520e-01 2.654700000000000115e-02 -4.151730000000000143e-01 -1.909220000000000084e-01 3.039830000000000032e-01 4.046750000000000069e-01 -1.468689999999999996e-01 -1.644500000000000128e-01 -4.774209999999999843e-01 5.259899999999999992e-02 -3.169759999999999800e-01 4.358499999999999874e-02 -5.200369999999999715e-01 -4.026500000000000079e-01 5.428910000000000124e-01 5.328889999999999461e-01 -3.682559999999999722e-01 -4.328100000000000003e-02 -2.195940000000000114e-01 -7.210300000000000042e-02 -5.547180000000000444e-01 -2.141079999999999928e-01 -9.099500000000000643e-02 6.068300000000000083e-02 -1.866099999999999981e-01 -1.318560000000000010e-01 2.126199999999999965e-02 -6.422899999999999443e-02 2.107580000000000009e-01 -6.489599999999999536e-02 -8.793000000000000468e-03 1.111999999999999968e-02 -1.876600000000000143e-02 4.520529999999999826e-01 2.742080000000000073e-01 -4.285100000000000020e-01 4.932250000000000245e-01 4.975140000000000118e-01 -9.616660000000000208e-01 1.291370000000000018e-01 2.301100000000000090e-01 9.846319999999999517e-01 1.720730000000000037e-01 2.405700000000000061e-01 1.183099999999999950e-02 5.431329999999999769e-01 -2.719849999999999768e-01 -4.515739999999999754e-01 -4.824099999999999916e-02 -2.222609999999999864e-01 5.237849999999999451e-01 1.967780000000000085e-01 4.844680000000000097e-01 -4.722799999999999776e-01 2.558670000000000111e-01 -2.857810000000000072e-01 -5.209660000000000402e-01 -7.489999999999999436e-02 2.223239999999999938e-01 4.736850000000000227e-01
-4.599000000000000310e-02 1.473690000000000000e-01 -1.360599999999999865e-01 1.598899999999999974e-02 -4.399700000000000139e-02 -3.333200000000000052e-02 -3.137100000000000305e-02 2.289899999999999922e-02 -5.422799999999999843e-02 3.951199999999999851e-02 -1.692099999999999854e-02 -1.300850000000000062e-01 -2.351219999999999977e-01 4.548499999999999766e-02 -1.319889999999999952e-01 3.210799999999999765e-02 -1.074129999999999946e-01 1.976960000000000106e-01 1.614589999999999914e-01 1.727750000000000119e-01 1.377349999999999963e-01 2.349269999999999969e-01 4.581999999999999962e-02 1.373290000000000066e-01 -3.210315000000000030e+00 1.958680999999999894e+00 1.187075000000000102e+00 2.122900000000000134e-02 -2.029299999999999854e-02 -9.266950000000000465e-01 3.713700000000000334e-02 2.599399999999999974e-02 -1.276000000000000007e-03 1.925800000000000081e-02 1.272399999999999920e-02 1.871999999999999966e-03 1.140899999999999970e-01 -3.772804999999999964e+00 1.223999000000000059e+00 1.661699999999999983e-02 2.666900000000000173e-02 -9.651509999999999811e-01 5.370000000000000424e-04 -1.895499999999999963e-02 -2.442300000000000026e-02 2.043999999999999810e-03 -1.847400000000000084e-02 2.236799999999999899e-02 -3.318296999999999830e+00 1.813172000000000006e+00 1.213738999999999901e+00 2.940699999999999911e-02 -1.142999999999999919e-02 -9.395839999999999748e-01 -9.762899999999999356e-02 -3.540551999999999921e+00 -9.516999999999999418e-03 -3.530000000000000152e-03 7.513200000000000434e-02 2.588499999999999829e-02 3.205877999999999783e+00 1.944383999999999890e+00 -1.191856999999999944e+00 -3.176799999999999763e-02 -4.037099999999999717e-02 9.246309999999999807e-01 3.293902000000000108e+00 1.790726000000000040e+00 -1.219114000000000031e+00 -4.167799999999999977e-02 -1.810200000000000004e-02 9.473009999999999486e-01 -2.067400000000000140e-02 -5.619999999999999996e-04 -2.446699999999999917e-02 -2.019999999999999921e-02 1.024800000000000016e-02 2.646099999999999841e-02 3.291234999999999911e+00 -1.949249000000000009e+00 -1.185073000000000043e+00 -3.317371000000000070e+00 -1.885723999999999956e+00 1.176906000000000008e+00 -9.412800000000000333e-02 3.868173000000000084e+00 -1.184952999999999923e+00 -3.293568000000000051e+00 -1.922523999999999900e+00 1.173778999999999906e+00 3.120445000000000135e+00 1.793563000000000018e+00 1.421900000000000074e-02 -4.580000000000000043e-02 -3.992699999999999722e-02 -7.119000000000000328e-03 -3.046650000000000080e+00 1.747341000000000033e+00 -3.425999999999999792e-03 5.562199999999999783e-02 1.516400000000000040e-02 1.049000000000000019e-03 3.334810000000000052e+00 -1.917701000000000100e+00 -1.195526000000000089e+00 8.876000000000000556e-02 8.506900000000000572e-02 9.222650000000000015e-01 -3.124931999999999821e+00 -1.747034999999999894e+00 -2.563000000000000174e-03 8.606400000000000161e-02 -1.193199999999999990e-02 -1.079500000000000078e-02 1.392900000000000041e-02 -1.991000000000000061e-02 3.050000000000000194e-03 3.066187000000000218e+00 1.780877000000000043e+00 4.434999999999999706e-03 -3.134917000000000176e+00 -1.795083999999999902e+00 8.063000000000000722e-03 3.102513000000000076e+00 -1.762019999999999920e+00 -1.246799999999999992e-02 -2.197199999999999848e-02 4.726000000000000166e-03 1.675499999999999906e-02 -4.487300000000000316e-02 3.529783999999999811e+00 -2.258500000000000091e-02 -5.285440000000000138e-01 3.127599999999999825e-02 3.844670000000000032e-01 2.072900000000000090e-02 -4.025150000000000117e-01 4.710199999999999804e-02 3.417720000000000202e-01 6.022000000000000269e-02 -1.361342000000000052e+00 -2.990639999999999965e-01 -1.708099999999999896e-01 1.377774000000000054e+00 -3.320040000000000213e-01 2.094540000000000013e-01 7.057599999999999985e-02 9.564899999999999791e-02 7.823099999999999499e-02 9.044299999999999562e-01 -2.371679999999999899e-01 -4.661750000000000060e-01 3.861899999999999777e-01 3.807490000000000041e-01 2.421989999999999976e-01 -9.108600000000000030e-01 -2.539770000000000083e-01 5.679100000000000120e-02 9.889199999999999380e-02 -6.932350000000000456e-01 3.608210000000000028e-01 9.424050000000000482e-01 1.380230000000000068e-01 8.269799999999999374e-02 -1.004179999999999934e-01 -3.801599999999999979e-01 1.896279999999999910e-01 -9.580809999999999604e-01 -2.122920000000000085e-01 6.903900000000000314e-02 3.715749999999999886e-01 3.515070000000000139e-01 -2.196629999999999971e-01 -4.629369999999999874e-01 4.259099999999999692e-02 -6.179459999999999953e-01 -4.217910000000000270e-01 -3.417209999999999970e-01 -5.275750000000000162e-01 4.700349999999999806e-01 -4.052999999999999658e-02 -2.301680000000000115e-01 4.314020000000000077e-01 -3.773500000000000187e-01 -1.915560000000000040e-01 -4.764320000000000221e-01 5.256579999999999586e-01 1.327099999999999981e-02 -3.861359999999999792e-01 6.756079999999999863e-01 3.615490000000000093e-01 -9.828010000000000357e-01 3.647929999999999784e-01 1.848889999999999978e-01 9.979679999999999662e-01 1.272429999999999950e-01 3.029450000000000198e-01 -3.803759999999999919e-01 -8.715000000000000524e-03 -8.450199999999999378e-02 -9.591999999999999832e-03 -2.449099999999999888e-02 -4.234490000000000198e-01 1.056999999999999953e-02 -2.899600000000000094e-02 9.230000000000000357e-03 3.033999999999999891e-02 2.556499999999999884e-01 2.665399999999999991e-01 -4.802469999999999795e-01 2.361939999999999873e-01 1.386920000000000097e-01 -3.119299999999999851e-02 -7.950000000000000252e-04 4.210900000000000198e-01 4.841570000000000040e-01
-1.633499999999999883e-02 1.292619999999999880e-01 -2.873829999999999996e-01 1.078019999999999951e-01 -2.744399999999999964e-02 2.268280000000000018e-01 -4.386600000000000221e-02 -7.380000000000000492e-04 -1.558499999999999885e-01 -7.644800000000000206e-02 -2.276980000000000115e-01 9.257100000000000051e-02 -1.769670000000000132e-01 2.087489999999999901e-01 6.482300000000000562e-02 -4.545600000000000335e-02 8.977999999999999869e-03 1.301289999999999947e-01 2.201460000000000083e-01 -6.881600000000000217e-02 -1.322450000000000014e-01 -1.448129999999999973e-01 -5.262200000000000211e-02 1.193140000000000034e-01 -3.532600000000000323e-02 3.870935999999999932e+00 1.520561999999999969e+00 -7.780999999999999722e-03 1.067099999999999993e-02 -9.988920000000000021e-01 -3.099572000000000216e+00 -1.810840999999999923e+00 -2.890000000000000208e-03 7.213799999999999379e-02 3.785100000000000270e-02 -1.257800000000000064e-02 1.181460000000000010e-01 -3.897232999999999947e+00 -1.268534999999999968e+00 5.632899999999999713e-02 2.815900000000000000e-02 9.802469999999999795e-01 -3.152124000000000148e+00 1.750027999999999917e+00 -1.561000000000000061e-02 7.849100000000000521e-02 -4.219400000000000234e-02 6.464000000000000128e-03 -4.283000000000000002e-02 -3.856142000000000181e+00 -1.232204000000000077e+00 -2.471200000000000133e-02 8.436000000000000790e-03 9.476649999999999796e-01 3.103098000000000134e+00 1.900635000000000074e+00 3.489600000000000340e-02 -6.834099999999999897e-02 -2.897100000000000022e-02 -4.793800000000000144e-02 3.108954999999999913e+00 -1.767590999999999912e+00 -2.480800000000000019e-02 -8.026200000000000001e-02 3.984100000000000141e-02 2.886400000000000077e-02 3.189097999999999988e+00 1.738961999999999897e+00 6.523299999999999932e-02 -3.274500000000000327e-02 -6.801100000000000201e-02 -7.750999999999999557e-02 -3.348885999999999807e+00 1.990825999999999985e+00 -1.216488999999999931e+00 -1.701499999999999888e-02 6.662000000000000387e-03 9.418830000000000258e-01 3.235986000000000029e+00 -1.882841999999999905e+00 -1.163724999999999898e+00 -1.124649999999999955e-01 -2.009999999999999981e-02 9.377450000000000507e-01 -7.809399999999999675e-02 -2.832199999999999995e-02 -9.600710000000000077e-01 -5.899900000000000283e-02 3.844711999999999907e+00 1.216536999999999979e+00 1.440699999999999967e-02 3.526489999999999903e+00 2.492300000000000071e-02 1.209799999999999938e-02 -3.714313000000000198e+00 -2.106500000000000039e-02 -3.207812000000000108e+00 -1.925755000000000106e+00 -1.221152999999999933e+00 1.224070000000000019e-01 3.839221999999999912e+00 1.246337999999999946e+00 -3.374499999999999722e-02 9.880800000000000693e-02 6.833300000000000485e-02 3.142622999999999944e+00 -1.727797000000000027e+00 -5.507999999999999702e-02 8.820799999999999474e-02 2.750299999999999967e-02 2.431099999999999928e-02 -3.157141000000000197e+00 -1.733673999999999937e+00 -2.117499999999999938e-02 -2.974100000000000008e-02 7.696500000000000563e-02 9.139400000000000301e-02 4.628000000000000169e-03 -9.337299999999999767e-02 -9.051599999999999924e-02 1.349899999999999989e-01 -7.399400000000000421e-02 3.382399999999999990e-02 -3.034527999999999892e+00 1.777447999999999917e+00 -2.370900000000000091e-02 -7.759599999999999831e-02 -1.975899999999999879e-02 -9.756179999999999852e-01 3.297489000000000114e+00 -1.905785000000000062e+00 1.230847000000000024e+00 -7.984199999999999631e-02 4.490770000000000040e-01 7.407599999999999740e-01 3.578580000000000094e-01 -1.925880000000000092e-01 -5.005370000000000097e-01 -1.428379999999999928e-01 -2.752789999999999959e-01 -8.822870000000000434e-01 -1.222950000000000009e-01 -1.278910000000000047e-01 8.809090000000000531e-01 1.198800000000000039e-02 3.908699999999999952e-01 4.171429999999999860e-01 1.424100000000000019e-02 -2.134109999999999896e-01 -3.280509999999999815e-01 -1.562320000000000098e-01 1.421399999999999920e-02 -3.792559999999999820e-01 -1.763299999999999937e-02 -3.536000000000000081e-03 3.955940000000000012e-01 -5.241470000000000296e-01 6.989199999999999580e-02 -4.067830000000000057e-01 -5.009959999999999969e-01 3.878880000000000106e-01 3.998639999999999972e-01 -3.732559999999999767e-01 2.433619999999999950e-01 -7.073899999999999633e-02 -2.333280000000000076e-01 -4.494409999999999794e-01 -3.763859999999999983e-01 3.571610000000000062e-01 -3.311620000000000119e-01 -4.437929999999999930e-01 3.791749999999999843e-01 -2.017130000000000034e-01 4.666870000000000185e-01 3.933880000000000154e-01 1.991709999999999869e-01 -4.011689999999999978e-01 -3.089129999999999932e-01 -2.260159999999999947e-01 -3.920120000000000271e-01 4.645830000000000237e-01 -1.310919999999999863e-01 3.950830000000000175e-01 -3.394119999999999915e-01 -2.329160000000000119e-01 4.068990000000000107e-01 5.324579999999999869e-01 -3.825749999999999984e-01 -8.744110000000000493e-01 8.955299999999999372e-02 6.315800000000000580e-02 3.532099999999999823e-02 6.059269999999999934e-01 -2.462620000000000087e-01 8.780710000000000459e-01 2.109499999999999917e-02 1.596999999999999895e-03 -3.943300000000000277e-02 3.605780000000000096e-01 2.107469999999999899e-01 -4.338420000000000054e-01 -3.855359999999999898e-01 1.928080000000000072e-01 -9.297649999999999526e-01 1.302929999999999922e-01 4.203930000000000167e-01 4.258790000000000076e-01 -3.948599999999999888e-01 2.255250000000000032e-01 9.546339999999999826e-01 -3.866760000000000197e-01 4.290800000000000169e-01 -3.508990000000000165e-01 3.442270000000000052e-01 -2.310290000000000121e-01 3.838340000000000085e-01
-1.507799999999999939e-02 -3.386900000000000327e-02 -2.039330000000000032e-01 8.890000000000000333e-04 -5.662199999999999872e-02 1.272369999999999890e-01 -3.519900000000000112e-02 -8.465200000000000502e-02 -5.083800000000000124e-02 2.167900000000000035e-02 -3.482999999999999985e-02 1.718119999999999925e-01 2.229079999999999950e-01 1.342500000000000082e-01 3.382700000000000290e-02 -3.061809999999999810e-01 -1.871670000000000000e-01 -1.357490000000000085e-01 -2.684039999999999759e-01 1.337099999999999921e-02 2.861100000000000101e-02 -1.285729999999999928e-01 -2.310300000000000131e-01 2.175900000000000056e-02 -3.295176000000000105e+00 1.949656000000000056e+00 1.195345000000000102e+00 -4.252299999999999830e-02 -6.377599999999999936e-02 -9.692020000000000080e-01 -3.187237000000000098e+00 -1.805906999999999929e+00 1.273000000000000000e-02 3.194300999999999835e+00 1.861164000000000041e+00 -2.058099999999999860e-02 5.637899999999999856e-02 -3.592391000000000112e+00 -5.046799999999999897e-02 -6.464899999999999813e-02 4.255300000000000055e-02 4.791999999999999732e-02 -5.037300000000000111e-02 -4.216600000000000209e-02 9.445700000000000207e-01 3.341330000000000133e+00 1.912571000000000021e+00 -1.200838999999999990e+00 4.477400000000000130e-02 -9.744800000000000684e-02 -3.756199999999999817e-02 2.336099999999999982e-02 3.608363000000000209e+00 2.483600000000000044e-02 -8.068500000000000671e-02 9.461799999999999378e-02 -1.203199999999999929e-02 3.112900999999999918e+00 -1.764208999999999916e+00 6.579999999999999911e-03 3.102917000000000147e+00 1.831420000000000048e+00 -9.374000000000000388e-03 -3.164663000000000004e+00 -1.853774999999999951e+00 2.743999999999999911e-03 3.173429000000000055e+00 1.787474000000000007e+00 9.813000000000000542e-03 -3.170868000000000020e+00 -1.811139000000000054e+00 -1.374500000000000027e-02 4.399900000000000339e-02 2.299000000000000002e-02 -1.028899999999999954e-02 -3.100284999999999958e+00 -1.781692999999999971e+00 7.511999999999999580e-03 3.349934000000000189e+00 -1.850077999999999889e+00 -1.212136000000000102e+00 1.741499999999999992e-02 1.067999999999999939e-03 9.686740000000000350e-01 7.190000000000000210e-03 -3.153100000000000347e-02 -9.856049999999999534e-01 3.723999999999999880e-03 3.544200000000000128e-02 9.771790000000000198e-01 6.477299999999999724e-02 3.545751999999999793e+00 1.632300000000000070e-02 1.754400000000000057e-02 -5.677000000000000102e-02 -8.663000000000000561e-03 -8.191000000000000364e-03 -3.601264000000000021e+00 -3.935999999999999915e-02 -8.996999999999999789e-03 4.800399999999999806e-02 6.085499999999999937e-02 -8.609799999999999398e-02 4.120999999999999663e-03 9.910360000000000280e-01 -1.919799999999999979e-02 -1.484700000000000082e-02 -9.763249999999999984e-01 -7.659299999999999442e-02 3.536750000000000060e+00 -3.907299999999999662e-02 -2.835599999999999926e-02 -6.360300000000000675e-02 5.500800000000000134e-02 -3.309368000000000087e+00 -1.831746000000000096e+00 1.276545999999999959e+00 2.035700000000000010e-02 2.073600000000000096e-02 -9.980930000000000080e-01 8.659899999999999542e-02 2.444199999999999845e-02 9.556759999999999700e-01 2.163100000000000092e-02 6.903000000000000282e-03 -9.392139999999999933e-01 2.025599999999999970e-02 -1.924199999999999869e-02 9.647259999999999724e-01 2.217299999999999827e-02 7.102999999999999939e-03 -9.391100000000000003e-01 -3.330989999999999784e-01 1.953330000000000066e-01 4.689749999999999752e-01 4.508590000000000098e-01 -2.367620000000000002e-01 -3.590999999999999748e-01 2.797399999999999887e-01 -1.583499999999999838e-02 -5.498039999999999594e-01 3.799500000000000099e-02 2.219399999999999845e-02 5.504989999999999606e-01 3.108800000000000105e-02 1.059650000000000036e-01 7.009799999999999365e-02 8.838999999999999635e-03 -9.469400000000000039e-02 -4.945570000000000244e-01 -2.778129999999999766e-01 2.460990000000000122e-01 4.705509999999999970e-01 8.139999999999999666e-03 -3.978610000000000202e-01 4.960419999999999829e-01 -1.474109999999999865e-01 3.339730000000000198e-01 -4.701089999999999991e-01 -1.373489999999999989e-01 -2.386620000000000130e-01 9.262939999999999507e-01 3.396020000000000150e-01 1.903880000000000017e-01 -4.440600000000000103e-01 6.859999999999999432e-02 -1.245740000000000042e-01 -9.221260000000000012e-01 4.582000000000000135e-03 2.613909999999999845e-01 9.146760000000000446e-01 -1.018619999999999942e-01 -4.642999999999999905e-02 -4.606099999999999778e-02 3.331000000000000193e-03 4.594389999999999863e-01 -9.292420000000000124e-01 4.306820000000000093e-01 8.980000000000000352e-04 9.208610000000000406e-01 7.441899999999999904e-02 2.042360000000000009e-01 4.748870000000000036e-01 4.001979999999999982e-01 -2.265949999999999909e-01 -9.294090000000000407e-01 3.036360000000000170e-01 3.237289999999999890e-01 -4.685159999999999880e-01 -1.310200000000000080e-02 -3.854350000000000276e-01 3.310460000000000069e-01 -1.068059999999999982e-01 -8.085799999999999932e-02 3.768190000000000150e-01 -1.169100000000000000e-02 -3.107899999999999899e-02 -3.455150000000000166e-01 -2.816620000000000235e-01 -3.008100000000000010e-02 3.448470000000000146e-01 1.203089999999999993e-01 1.758750000000000036e-01 -4.443099999999999827e-02 -3.724600000000000133e-02 7.934000000000000080e-03 -3.574680000000000080e-01 -4.345459999999999878e-01 -5.472999999999999567e-03 8.609459999999999891e-01 2.017750000000000099e-01 4.066100000000000270e-02 -2.945000000000000048e-02 -4.049780000000000046e-01 -2.327730000000000077e-01 -8.658179999999999765e-01