7.167573628004721975e+00 1.834693157025749442e-22 -6.617444900424221399e-24 -3.583801870049978522e+00 6.207290973486810692e+00 -4.135903062765138374e-25 1.135941109528096077e-07 7.958948484798194935e-08 8.974138613999999237e+00
7.118239757999999640e+00 0.000000000000000000e+00 0.000000000000000000e+00 -3.681787470999999812e+00 6.052360614000000361e+00 0.000000000000000000e+00 1.682777970000000067e-01 2.665065039999999774e-01 9.053844006000000277e+00
6.961407643000000256e+00 0.000000000000000000e+00 0.000000000000000000e+00 -3.520849682000000147e+00 6.034233004999999928e+00 0.000000000000000000e+00 -2.331062829999999975e-01 -5.195988000000000342e-03 8.719719953000000245e+00
7.245660850000000153e+00 0.000000000000000000e+00 0.000000000000000000e+00 -3.465280589999999883e+00 6.113621868000000070e+00 0.000000000000000000e+00 4.876780299999999846e-02 -7.144903900000000585e-02 9.230402040999999613e+00
7.120562854000000108e+00 0.000000000000000000e+00 0.000000000000000000e+00 -3.524569437999999888e+00 6.191955260000000294e+00 0.000000000000000000e+00 2.126161709999999927e-01 -1.205156349999999960e-01 9.161662799000000135e+00
7.345030583999999862e+00 0.000000000000000000e+00 0.000000000000000000e+00 -3.783603658000000092e+00 6.151517196000000354e+00 0.000000000000000000e+00 2.251430030000000082e-01 2.185393900000000000e-01 9.067098054000000573e+00
7.191885640999999829e+00 0.000000000000000000e+00 0.000000000000000000e+00 -3.628421415000000039e+00 6.353558741999999704e+00 0.000000000000000000e+00 -1.574816199999999888e-01 8.822352399999999761e-02 8.876045432999999818e+00
7.001444242999999901e+00 0.000000000000000000e+00 0.000000000000000000e+00 -3.379054405000000205e+00 6.083576404999999632e+00 0.000000000000000000e+00 1.768250239999999973e-01 -1.749389709999999987e-01 8.787151724999999303e+00
7.250247253999999586e+00 0.000000000000000000e+00 0.000000000000000000e+00 -3.680896692000000137e+00 6.276871271000000085e+00 0.000000000000000000e+00 2.601882609999999763e-01 2.341703470000000009e-01 9.029721738999999303e+00
7.108016454999999567e+00 0.000000000000000000e+00 0.000000000000000000e+00 -3.400012466000000178e+00 6.308637953999999937e+00 0.000000000000000000e+00 7.484462100000000007e-02 2.419813389999999897e-01 8.854334056000000786e+00
7.198011152000000301e+00 0.000000000000000000e+00 0.000000000000000000e+00 -3.455780616999999832e+00 6.052821931000000433e+00 0.000000000000000000e+00 -1.047660890000000067e-01 -4.010980900000000321e-02 8.887666814999999332e+00
7.239973362004765711e+00 1.690804381687157855e-21 0.000000000000000000e+00 -3.620001888929994305e+00 6.269990881986677422e+00 -8.271806125530276749e-25 1.135941098040546175e-07 8.058948484832464930e-08 9.064786479000000341e+00
7.300781484999999904e+00 0.000000000000000000e+00 0.000000000000000000e+00 -3.781759561999999963e+00 6.144775873000000388e+00 0.000000000000000000e+00 -2.131518960000000074e-01 -1.902551399999999893e-01 8.852604228000000575e+00
7.442585758999999968e+00 0.000000000000000000e+00 0.000000000000000000e+00 -3.852405018999999875e+00 6.359449219000000042e+00 0.000000000000000000e+00 2.010641100000000112e-02 2.200401929999999950e-01 8.962305975999999674e+00
7.300169877000000085e+00 0.000000000000000000e+00 0.000000000000000000e+00 -3.638410235999999909e+00 6.216721673000000337e+00 0.000000000000000000e+00 -1.901246209999999937e-01 2.400877399999999939e-01 9.299419699999999622e+00
7.148013685999999645e+00 0.000000000000000000e+00 0.000000000000000000e+00 -3.594315275000000032e+00 6.344214133999999561e+00 0.000000000000000000e+00 6.425745600000000446e-02 2.480797250000000009e-01 8.886239035999999203e+00
7.457511875999999873e+00 0.000000000000000000e+00 0.000000000000000000e+00 -3.887717041000000151e+00 6.433934308999999629e+00 0.000000000000000000e+00 -2.430818319999999977e-01 -1.094273379999999990e-01 9.108223242999999414e+00
7.391291682000000307e+00 0.000000000000000000e+00 0.000000000000000000e+00 -3.832629450000000215e+00 6.135041955000000158e+00 0.000000000000000000e+00 2.571855960000000163e-01 2.003763789999999934e-01 9.138412583999999228e+00
7.200077030000000100e+00 0.000000000000000000e+00 0.000000000000000000e+00 -3.602490116999999881e+00 6.439166480999999997e+00 0.000000000000000000e+00 1.348226780000000014e-01 1.187042670000000022e-01 9.305001514000000640e+00
7.258392684999999567e+00 0.000000000000000000e+00 0.000000000000000000e+00 -3.649841384000000133e+00 6.296994997999999732e+00 0.000000000000000000e+00 1.572059500000000110e-01 -8.448502099999999349e-02 9.039642040000000378e+00
7.217582475999999581e+00 0.000000000000000000e+00 0.000000000000000000e+00 -3.428307742999999963e+00 6.196261574000000216e+00 0.000000000000000000e+00 -1.059221469999999943e-01 -4.350875099999999829e-02 9.175177983999999398e+00
7.122404131999999777e+00 0.000000000000000000e+00 0.000000000000000000e+00 -3.698724438999999808e+00 6.296465945999999647e+00 0.000000000000000000e+00 1.949599929999999981e-01 -1.024760940000000037e-01 8.846959721999999360e+00
7.312373095004815582e+00 -1.672556866182412196e-21 0.000000000000000000e+00 -3.656201908676036894e+00 6.332690789986540558e+00 -1.240770918829541512e-24 1.158461567429693652e-07 8.131235984293531858e-08 9.155434343999999669e+00
7.356189471000000424e+00 0.000000000000000000e+00 0.000000000000000000e+00 -3.634569064999999988e+00 6.293696948000000013e+00 0.000000000000000000e+00 5.461874600000000274e-02 1.836988989999999988e-01 8.960438756000000282e+00
7.397563166000000301e+00 0.000000000000000000e+00 0.000000000000000000e+00 -3.783196815000000157e+00 6.171288177000000097e+00 0.000000000000000000e+00 2.203187259999999925e-01 3.252087000000000033e-02 9.164073583000000411e+00
7.510186925000000180e+00 0.000000000000000000e+00 0.000000000000000000e+00 -3.638953175999999790e+00 6.520237727999999677e+00 0.000000000000000000e+00 -1.389694059999999898e-01 -3.974651600000000257e-02 9.085049617999999327e+00
7.514627493999999963e+00 0.000000000000000000e+00 0.000000000000000000e+00 -3.670648338999999982e+00 6.292687765000000155e+00 0.000000000000000000e+00 1.583721620000000108e-01 -1.487922339999999954e-01 8.988868275999999824e+00
7.481648325000000099e+00 0.000000000000000000e+00 0.000000000000000000e+00 -3.685912110999999936e+00 6.375583546999999740e+00 0.000000000000000000e+00 -2.714287530000000226e-01 -1.695722779999999930e-01 9.337812944999999587e+00
7.413962660000000149e+00 0.000000000000000000e+00 0.000000000000000000e+00 -3.701290809000000070e+00 6.331433604999999964e+00 0.000000000000000000e+00 2.169322579999999889e-01 -5.942518499999999843e-02 8.922592400999999285e+00
7.141797655000000411e+00 0.000000000000000000e+00 0.000000000000000000e+00 -3.706953937999999837e+00 6.142035915000000124e+00 0.000000000000000000e+00 -2.413111609999999962e-01 1.301804970000000061e-01 8.963695846000000245e+00
7.459326146999999629e+00 0.000000000000000000e+00 0.000000000000000000e+00 -3.591820828999999993e+00 6.299362065999999594e+00 0.000000000000000000e+00 -5.540064900000000320e-02 3.706992099999999873e-02 9.199329589999999612e+00
7.134500975999999994e+00 0.000000000000000000e+00 0.000000000000000000e+00 -3.639283151999999966e+00 6.457716024999999860e+00 0.000000000000000000e+00 2.732817499999999969e-02 -2.064729160000000063e-01 9.301650068000000715e+00
7.330135433999999783e+00 0.000000000000000000e+00 0.000000000000000000e+00 -3.547424320999999825e+00 6.486587594000000401e+00 0.000000000000000000e+00 -4.278229699999999691e-02 -1.783791900000000069e-02 9.390510906999999463e+00
