1.791888839882471496e+00 1.034552073906383818e+00 4.216399984166665504e+00 1.791888868679555546e+00 1.034552092701096937e+00 8.703469984166664730e+00 -1.472163386194245853e-05 4.138190017646775409e+00 4.216399982666713342e+00 -1.469283677792039115e-05 4.138190036441487862e+00 8.703469982666712568e+00 5.375678839891588012e+00 1.034546186410039592e+00 4.216399961166669819e+00 5.375678868688671841e+00 1.034546205204752711e+00 8.703469961166668156e+00 3.583775278363779293e+00 4.138194130150431249e+00 4.216399959666675912e+00 3.583775307160863566e+00 4.138194148945143702e+00 8.703469959666675138e+00 -2.361691188474367662e-06 2.069100008262276802e+00 1.972869991333303652e+00 -2.332894168630226135e-06 2.069100027056948399e+00 6.459929991333304145e+00 -1.791905923207521845e+00 5.172737952002667505e+00 1.972869989833352156e+00 -1.791905894410502187e+00 5.172737970797339102e+00 6.459929989833351982e+00 3.583787638317928348e+00 2.069094120765932576e+00 1.972869968333307966e+00 3.583787667114948228e+00 2.069094139560604173e+00 6.459929968333307571e+00 1.791884076790119629e+00 5.172742064506323345e+00 1.972869966833314503e+00 1.791884105587139286e+00 5.172742083300994942e+00 6.459929966833314552e+00 1.791888825502509164e+00 1.034552064521153447e+00 1.975759984166665095e+00 1.791888854299593214e+00 1.034552083315866566e+00 6.462829984166665653e+00 -1.473601382444431472e-05 4.138190008261544151e+00 1.975759982666713599e+00 -1.470721674042224734e-05 4.138190027056257492e+00 6.462829982666713491e+00 5.375678825511625902e+00 1.034546177024809221e+00 1.975759961166669409e+00 5.375678854308709731e+00 1.034546195819522341e+00 6.462829961166669968e+00 3.583775263983816739e+00 4.138194120765199990e+00 1.975759959666675947e+00 3.583775292780901012e+00 4.138194139559913332e+00 6.462829959666676061e+00 -2.347274131132081902e-06 2.069100017671717584e+00 4.219289991333304179e+00 -2.318477047110015366e-06 2.069100036466430925e+00 8.706359991333304293e+00 -1.791905908790464519e+00 5.172737961412108731e+00 4.219289989833352017e+00 -1.791905879993380690e+00 5.172737980206822073e+00 8.706359989833352131e+00 3.583777652734985608e+00 2.069094130163898093e+00 4.219289968333372443e+00 3.583777681532069881e+00 2.069094148958611434e+00 8.706359968333371668e+00 1.791884091207176954e+00 5.172742073915764571e+00 4.219289966833314587e+00 1.791884120004260783e+00 5.172742092710477912e+00 8.706359966833314701e+00
1.845239999999999991e+00 1.128600000000000048e+00 4.246640000000000192e+00 1.914619999999999989e+00 1.272259999999999946e+00 8.771670000000000300e+00 -1.059999999999999961e-03 4.169509999999999827e+00 4.257049999999999557e+00 8.325000000000000455e-02 4.295490000000000030e+00 8.778230000000000643e+00 5.397560000000000358e+00 1.129399999999999959e+00 4.248039999999999594e+00 5.478279999999999816e+00 1.271749999999999936e+00 8.785640000000000782e+00 3.551899999999999835e+00 4.149280000000000079e+00 4.265640000000000320e+00 3.628969999999999807e+00 4.295119999999999827e+00 8.771449999999999747e+00 -7.159999999999999698e-03 2.078669999999999796e+00 1.985980000000000079e+00 7.717999999999999861e-02 2.198090000000000099e+00 6.506569999999999965e+00 -1.845820000000000016e+00 5.102949999999999875e+00 1.989160000000000039e+00 -1.763889999999999958e+00 5.230109999999999815e+00 6.525590000000000224e+00 3.561430000000000096e+00 2.081890000000000018e+00 1.988480000000000025e+00 3.648350000000000204e+00 2.210389999999999855e+00 6.512529999999999930e+00 1.711829999999999963e+00 5.092100000000000293e+00 1.993579999999999908e+00 1.795080000000000009e+00 5.241810000000000080e+00 6.511429999999999829e+00 1.793269999999999920e+00 1.069020000000000081e+00 1.989290000000000003e+00 1.883950000000000014e+00 1.200609999999999955e+00 6.523290000000000255e+00 -3.756999999999999923e-02 4.101440000000000197e+00 1.996969999999999912e+00 5.088000000000000161e-02 4.221339999999999648e+00 6.526729999999999698e+00 5.347159999999999691e+00 1.074030000000000040e+00 2.007400000000000073e+00 5.450779999999999959e+00 1.188790000000000013e+00 6.510779999999999568e+00 3.509920000000000151e+00 4.087740000000000151e+00 1.989770000000000039e+00 3.595460000000000100e+00 4.224429999999999907e+00 6.518699999999999939e+00 3.547999999999999765e-02 2.152899999999999814e+00 4.269639999999999880e+00 1.177499999999999936e-01 2.264549999999999841e+00 8.782389999999999475e+00 -1.802030000000000021e+00 5.167449999999999655e+00 4.262620000000000076e+00 -1.712520000000000042e+00 5.292510000000000048e+00 8.798980000000000246e+00 3.587390000000000079e+00 2.137739999999999974e+00 4.246220000000000105e+00 3.683399999999999785e+00 2.272619999999999862e+00 8.783300000000000551e+00 1.770569999999999977e+00 5.168249999999999567e+00 4.269009999999999749e+00 1.842119999999999980e+00 5.297270000000000145e+00 8.789960000000000662e+00
1.624949999999999894e+00 1.004899999999999904e+00 4.097089999999999677e+00 1.505710000000000104e+00 1.009810000000000096e+00 8.466580000000000439e+00 -1.361700000000000133e-01 4.020539999999999559e+00 4.096809999999999619e+00 -2.555799999999999739e-01 4.026980000000000004e+00 8.449909999999999144e+00 5.110579999999999679e+00 9.984199999999999742e-01 4.093720000000000248e+00 4.999830000000000219e+00 9.908000000000000140e-01 8.467290000000000205e+00 3.338569999999999816e+00 4.033109999999999751e+00 4.084310000000000329e+00 3.234389999999999876e+00 4.014759999999999884e+00 8.452469999999999928e+00 -6.496000000000000385e-02 2.009609999999999896e+00 1.918539999999999912e+00 -1.810799999999999910e-01 2.007719999999999949e+00 6.276550000000000296e+00 -1.833110000000000017e+00 5.020719999999999850e+00 1.921119999999999939e+00 -1.942469999999999919e+00 5.024980000000000224e+00 6.278139999999999610e+00 3.410229999999999873e+00 2.020579999999999821e+00 1.912719999999999976e+00 3.311710000000000154e+00 2.017700000000000049e+00 6.279849999999999710e+00 1.640789999999999971e+00 5.033479999999999954e+00 1.915799999999999947e+00 1.548839999999999995e+00 5.027720000000000411e+00 6.286480000000000068e+00 1.676099999999999923e+00 1.000559999999999894e+00 1.924989999999999979e+00 1.561139999999999972e+00 1.011779999999999902e+00 6.272899999999999920e+00 -8.662000000000000255e-02 4.027190000000000047e+00 1.925049999999999928e+00 -1.922699999999999965e-01 4.037270000000000358e+00 6.287239999999999718e+00 5.159589999999999677e+00 1.008490000000000109e+00 1.911569999999999991e+00 5.038249999999999673e+00 9.936599999999999877e-01 6.277590000000000003e+00 3.404580000000000162e+00 4.021849999999999703e+00 1.921059999999999990e+00 3.275300000000000100e+00 4.027459999999999596e+00 6.280260000000000176e+00 -1.311799999999999911e-01 2.007390000000000008e+00 4.105500000000000149e+00 -2.321400000000000130e-01 2.006629999999999914e+00 8.453079999999999927e+00 -1.882630000000000026e+00 5.018939999999999735e+00 4.104739999999999611e+00 -2.005430000000000046e+00 5.025610000000000355e+00 8.446419999999999817e+00 3.357110000000000039e+00 2.009640000000000093e+00 4.100559999999999761e+00 3.241159999999999819e+00 2.014250000000000096e+00 8.445990000000000109e+00 1.583490000000000064e+00 5.022780000000000022e+00 4.107579999999999565e+00 1.472069999999999990e+00 5.032189999999999941e+00 8.444760000000000488e+00
1.866440000000000099e+00 9.951799999999999535e-01 4.342679999999999652e+00 1.877809999999999979e+00 9.526400000000000423e-01 8.954100000000000392e+00 1.304500000000000104e-01 4.042720000000000091e+00 4.335119999999999862e+00 1.602000000000000091e-01 3.997310000000000141e+00 8.940799999999999415e+00 5.475019999999999776e+00 9.753399999999999848e-01 4.322809999999999597e+00 5.495770000000000266e+00 9.366200000000000081e-01 8.951330000000000453e+00 3.751630000000000020e+00 4.050679999999999836e+00 4.337240000000000428e+00 3.766980000000000217e+00 3.998689999999999856e+00 8.967190000000000438e+00 6.891999999999999515e-02 2.018069999999999808e+00 2.026159999999999961e+00 9.302000000000000546e-02 1.992629999999999901e+00 6.647499999999999964e+00 -1.674619999999999997e+00 5.086630000000000429e+00 2.023519999999999985e+00 -1.644989999999999952e+00 5.040770000000000195e+00 6.644289999999999807e+00 3.688039999999999985e+00 2.026139999999999830e+00 2.037659999999999805e+00 3.702010000000000023e+00 1.991509999999999891e+00 6.654160000000000075e+00 1.966520000000000046e+00 5.083389999999999631e+00 2.028189999999999937e+00 1.978609999999999980e+00 5.033870000000000289e+00 6.659679999999999822e+00 1.850230000000000041e+00 1.005659999999999998e+00 2.032680000000000042e+00 1.859969999999999901e+00 9.568299999999999583e-01 6.650949999999999918e+00 1.241099999999999981e-01 4.068999999999999950e+00 2.025459999999999816e+00 1.426999999999999935e-01 4.026609999999999800e+00 6.652610000000000134e+00 5.482330000000000148e+00 1.009759999999999991e+00 2.041560000000000041e+00 5.503239999999999910e+00 9.745099999999999874e-01 6.641630000000000145e+00 3.746189999999999909e+00 4.052850000000000286e+00 2.022349999999999870e+00 3.763139999999999930e+00 4.027339999999999698e+00 6.642979999999999663e+00 6.979000000000000481e-02 2.016370000000000218e+00 4.354140000000000121e+00 1.037700000000000011e-01 1.972839999999999927e+00 8.964109999999999800e+00 -1.667210000000000081e+00 5.065389999999999837e+00 4.344269999999999854e+00 -1.637140000000000040e+00 5.026370000000000005e+00 8.964679999999999538e+00 3.699530000000000207e+00 1.988639999999999963e+00 4.342859999999999943e+00 3.722620000000000040e+00 1.967829999999999968e+00 8.955709999999999837e+00 1.977459999999999996e+00 5.074200000000000266e+00 4.342730000000000423e+00 1.986429999999999918e+00 5.031649999999999956e+00 8.960879999999999512e+00
1.885429999999999939e+00 9.851400000000000157e-01 4.311530000000000307e+00 1.990359999999999907e+00 9.125699999999999923e-01 8.878579999999999472e+00 1.236399999999999999e-01 4.071900000000000297e+00 4.305369999999999919e+00 2.349400000000000099e-01 4.002650000000000041e+00 8.893879999999999342e+00 5.451100000000000279e+00 9.784800000000000164e-01 4.296330000000000204e+00 5.551059999999999661e+00 9.123999999999999888e-01 8.889459999999999695e+00 3.699450000000000127e+00 4.072370000000000267e+00 4.316799999999999748e+00 3.791510000000000158e+00 4.012310000000000265e+00 8.884679999999999467e+00 6.386000000000000010e-02 2.044960000000000111e+00 2.010479999999999823e+00 1.655500000000000027e-01 1.977619999999999933e+00 6.595180000000000042e+00 -1.688430000000000097e+00 5.143609999999999793e+00 2.011800000000000033e+00 -1.592670000000000030e+00 5.064589999999999925e+00 6.601600000000000357e+00 3.616540000000000088e+00 2.037259999999999849e+00 2.011439999999999895e+00 3.712330000000000130e+00 1.988580000000000014e+00 6.586500000000000021e+00 1.855799999999999894e+00 5.135360000000000369e+00 2.001819999999999933e+00 1.967510000000000092e+00 5.068740000000000023e+00 6.588449999999999918e+00 1.832819999999999894e+00 1.005649999999999933e+00 2.017090000000000050e+00 1.939279999999999893e+00 9.452300000000000146e-01 6.597959999999999603e+00 6.569999999999999452e-02 4.099079999999999835e+00 2.018520000000000092e+00 1.870199999999999918e-01 4.032589999999999897e+00 6.608489999999999753e+00 5.392059999999999853e+00 1.005730000000000013e+00 2.013119999999999798e+00 5.503379999999999939e+00 9.423399999999999554e-01 6.594229999999999592e+00 3.621399999999999952e+00 4.088309999999999889e+00 2.005440000000000111e+00 3.735209999999999919e+00 4.049199999999999910e+00 6.595850000000000435e+00 1.038499999999999979e-01 2.013430000000000053e+00 4.308250000000000135e+00 2.197300000000000086e-01 1.946450000000000014e+00 8.890069999999999695e+00 -1.647159999999999958e+00 5.093340000000000423e+00 4.310830000000000162e+00 -1.530869999999999953e+00 5.055690000000000239e+00 8.883309999999999818e+00 3.672299999999999898e+00 1.998699999999999921e+00 4.299900000000000055e+00 3.766169999999999796e+00 1.946600000000000108e+00 8.889540000000000219e+00 1.913350000000000106e+00 5.114090000000000025e+00 4.312560000000000393e+00 2.011839999999999851e+00 5.043389999999999596e+00 8.901220000000000354e+00
1.910120000000000040e+00 1.119529999999999914e+00 4.268049999999999677e+00 2.034149999999999903e+00 1.236220000000000097e+00 8.795320000000000249e+00 4.376000000000000029e-02 4.188049999999999606e+00 4.259680000000000355e+00 1.316900000000000015e-01 4.311289999999999623e+00 8.790330000000000865e+00 5.584150000000000169e+00 1.121320000000000094e+00 4.253610000000000113e+00 5.708689999999999820e+00 1.237200000000000077e+00 8.793570000000000775e+00 3.692509999999999959e+00 4.204889999999999795e+00 4.273780000000000356e+00 3.835599999999999898e+00 4.310509999999999842e+00 8.797010000000000218e+00 1.167999999999999941e-02 2.098990000000000133e+00 1.994340000000000002e+00 1.277600000000000124e-01 2.208480000000000221e+00 6.522090000000000387e+00 -1.879510000000000014e+00 5.174489999999999590e+00 1.993360000000000021e+00 -1.766159999999999952e+00 5.282180000000000319e+00 6.525900000000000034e+00 3.685859999999999914e+00 2.098809999999999842e+00 1.994080000000000075e+00 3.812609999999999832e+00 2.212429999999999897e+00 6.535409999999999719e+00 1.782960000000000100e+00 5.157709999999999795e+00 1.989810000000000079e+00 1.906120000000000037e+00 5.284250000000000114e+00 6.524210000000000065e+00 1.868190000000000017e+00 1.072529999999999983e+00 1.995509999999999895e+00 1.987980000000000080e+00 1.189149999999999929e+00 6.523539999999999672e+00 -3.014999999999999972e-02 4.149729999999999919e+00 1.994560000000000111e+00 9.575999999999999790e-02 4.257010000000000183e+00 6.538129999999999775e+00 5.526329999999999742e+00 1.069760000000000044e+00 2.007620000000000182e+00 5.656909999999999883e+00 1.192020000000000080e+00 6.518769999999999953e+00 3.635440000000000005e+00 4.159069999999999823e+00 2.003019999999999801e+00 3.764429999999999943e+00 4.246550000000000047e+00 6.528749999999999609e+00 5.571000000000000257e-02 2.145690000000000097e+00 4.255910000000000082e+00 1.932500000000000051e-01 2.254869999999999930e+00 8.792749999999999844e+00 -1.831080000000000041e+00 5.220769999999999911e+00 4.274350000000000094e+00 -1.707889999999999908e+00 5.333409999999999762e+00 8.793889999999999318e+00 3.741029999999999855e+00 2.156179999999999986e+00 4.268510000000000026e+00 3.841009999999999813e+00 2.271059999999999857e+00 8.801439999999999486e+00 1.857280000000000042e+00 5.211369999999999614e+00 4.267719999999999736e+00 1.965789999999999926e+00 5.343880000000000408e+00 8.801429999999999865e+00
1.731999999999999984e+00 1.108319999999999972e+00 4.161139999999999617e+00 1.639610000000000012e+00 1.144449999999999967e+00 8.608309999999999462e+00 -9.027999999999999914e-02 4.280359999999999943e+00 4.161950000000000038e+00 -1.697700000000000042e-01 4.329080000000000261e+00 8.616469999999999629e+00 5.324049999999999727e+00 1.094260000000000010e+00 4.165930000000000355e+00 5.230330000000000368e+00 1.137599999999999945e+00 8.602040000000000575e+00 3.493370000000000086e+00 4.282589999999999897e+00 4.167889999999999873e+00 3.417409999999999837e+00 4.331070000000000420e+00 8.601850000000000662e+00 -4.349999999999999700e-02 2.137869999999999937e+00 1.950180000000000025e+00 -1.247199999999999975e-01 2.181880000000000042e+00 6.388829999999999565e+00 -1.851020000000000110e+00 5.321530000000000094e+00 1.945589999999999931e+00 -1.931089999999999973e+00 5.372589999999999755e+00 6.400970000000000049e+00 3.566289999999999960e+00 2.148480000000000167e+00 1.954339999999999966e+00 3.466889999999999805e+00 2.194100000000000161e+00 6.394040000000000390e+00 1.732320000000000082e+00 5.325070000000000192e+00 1.962960000000000038e+00 1.662679999999999936e+00 5.354689999999999728e+00 6.390740000000000087e+00 1.754809999999999981e+00 1.080349999999999921e+00 1.951370000000000049e+00 1.676619999999999999e+00 1.119150000000000089e+00 6.396390000000000242e+00 -5.698999999999999899e-02 4.254520000000000302e+00 1.954090000000000105e+00 -1.378999999999999948e-01 4.299339999999999939e+00 6.392489999999999561e+00 5.366729999999999556e+00 1.066570000000000018e+00 1.948569999999999913e+00 5.286520000000000330e+00 1.121580000000000021e+00 6.381809999999999761e+00 3.533150000000000013e+00 4.249859999999999971e+00 1.954860000000000042e+00 3.458330000000000126e+00 4.293140000000000178e+00 6.389120000000000132e+00 -8.422999999999999932e-02 2.159380000000000077e+00 4.173600000000000421e+00 -1.738899999999999890e-01 2.196709999999999940e+00 8.608879999999999200e+00 -1.901180000000000092e+00 5.345959999999999823e+00 4.180320000000000036e+00 -1.989109999999999934e+00 5.366900000000000226e+00 8.602779999999999205e+00 3.529609999999999914e+00 2.153220000000000134e+00 4.176619999999999777e+00 3.419540000000000024e+00 2.211259999999999781e+00 8.598679999999999879e+00 1.707920000000000105e+00 5.336470000000000269e+00 4.159670000000000201e+00 1.630540000000000100e+00 5.379400000000000404e+00 8.600080000000000169e+00
1.847329999999999917e+00 9.366999999999999771e-01 4.121660000000000323e+00 1.937640000000000029e+00 8.357400000000000384e-01 8.531259999999999621e+00 1.665800000000000058e-01 3.961969999999999992e+00 4.117960000000000065e+00 2.469800000000000051e-01 3.893899999999999917e+00 8.531670000000000087e+00 5.352560000000000429e+00 9.333099999999999730e-01 4.124139999999999695e+00 5.442169999999999952e+00 8.445500000000000229e-01 8.520039999999999836e+00 3.666129999999999889e+00 3.986069999999999780e+00 4.143089999999999939e+00 3.751199999999999868e+00 3.883059999999999956e+00 8.522410000000000707e+00 8.444999999999999729e-02 1.991749999999999909e+00 1.925519999999999898e+00 1.570100000000000107e-01 1.887829999999999897e+00 6.325569999999999915e+00 -1.608379999999999921e+00 5.035689999999999777e+00 1.944520000000000026e+00 -1.521160000000000068e+00 4.951870000000000438e+00 6.328579999999999650e+00 3.577850000000000197e+00 1.991430000000000033e+00 1.929589999999999916e+00 3.665970000000000173e+00 1.911829999999999918e+00 6.329850000000000421e+00 1.890740000000000087e+00 5.030540000000000234e+00 1.930090000000000083e+00 1.975170000000000092e+00 4.958029999999999937e+00 6.317770000000000330e+00 1.806380000000000097e+00 9.710299999999999487e-01 1.942430000000000101e+00 1.909669999999999979e+00 8.832299999999999596e-01 6.334050000000000402e+00 1.169700000000000045e-01 4.022149999999999892e+00 1.929340000000000055e+00 2.170999999999999874e-01 3.925609999999999822e+00 6.335989999999999789e+00 5.303060000000000329e+00 9.795300000000000118e-01 1.927920000000000078e+00 5.395590000000000330e+00 8.819599999999999662e-01 6.319569999999999688e+00 3.618040000000000145e+00 4.017439999999999678e+00 1.924609999999999932e+00 3.696460000000000079e+00 3.918140000000000178e+00 6.329290000000000305e+00 1.208199999999999968e-01 1.944930000000000048e+00 4.134730000000000238e+00 2.038000000000000089e-01 1.866409999999999902e+00 8.532120000000000815e+00 -1.553309999999999969e+00 4.974450000000000038e+00 4.130060000000000286e+00 -1.485319999999999974e+00 4.911979999999999791e+00 8.513350000000000861e+00 3.613900000000000112e+00 1.937489999999999934e+00 4.141709999999999781e+00 3.706949999999999967e+00 1.863299999999999956e+00 8.528489999999999682e+00 1.932239999999999958e+00 4.987969999999999793e+00 4.119830000000000325e+00 2.029970000000000052e+00 4.903419999999999668e+00 8.536870000000000402e+00
1.916700000000000070e+00 1.159739999999999993e+00 4.254520000000000302e+00 2.053049999999999820e+00 1.290089999999999959e+00 8.758820000000000050e+00 8.674999999999999378e-02 4.293350000000000222e+00 4.241349999999999731e+00 2.121300000000000130e-01 4.410230000000000317e+00 8.763970000000000482e+00 5.550410000000000288e+00 1.153350000000000097e+00 4.241200000000000081e+00 5.681049999999999933e+00 1.276410000000000045e+00 8.761089999999999378e+00 3.708349999999999813e+00 4.287989999999999746e+00 4.242939999999999934e+00 3.836269999999999847e+00 4.407309999999999839e+00 8.750679999999999126e+00 3.111999999999999836e-02 2.150809999999999889e+00 1.989239999999999897e+00 1.627399999999999958e-01 2.260260000000000158e+00 6.488839999999999719e+00 -1.802629999999999955e+00 5.281010000000000204e+00 1.984189999999999898e+00 -1.670230000000000103e+00 5.395100000000000229e+00 6.497119999999999784e+00 3.659499999999999975e+00 2.152639999999999887e+00 1.968860000000000054e+00 3.783040000000000180e+00 2.262970000000000148e+00 6.512150000000000105e+00 1.829690000000000039e+00 5.271840000000000082e+00 1.974460000000000104e+00 1.953640000000000043e+00 5.398139999999999716e+00 6.499609999999999665e+00 1.856330000000000036e+00 1.095550000000000024e+00 1.983819999999999917e+00 1.987170000000000103e+00 1.208769999999999900e+00 6.507500000000000284e+00 1.251999999999999988e-02 4.229390000000000427e+00 1.988410000000000011e+00 1.331499999999999906e-01 4.359460000000000335e+00 6.495359999999999800e+00 5.484510000000000218e+00 1.095730000000000093e+00 1.987579999999999902e+00 5.614410000000000345e+00 1.205230000000000024e+00 6.486180000000000057e+00 3.646009999999999973e+00 4.234309999999999796e+00 1.990629999999999900e+00 3.774049999999999905e+00 4.354729999999999990e+00 6.507220000000000226e+00 1.035100000000000048e-01 2.202820000000000000e+00 4.245700000000000252e+00 2.239899999999999947e-01 2.323529999999999873e+00 8.765050000000000452e+00 -1.736739999999999950e+00 5.340550000000000352e+00 4.245790000000000397e+00 -1.609480000000000022e+00 5.457729999999999748e+00 8.757680000000000575e+00 3.721690000000000165e+00 2.209849999999999870e+00 4.244580000000000020e+00 3.861699999999999910e+00 2.323459999999999859e+00 8.762999999999999901e+00 1.901000000000000023e+00 5.338079999999999714e+00 4.258449999999999847e+00 2.010959999999999859e+00 5.448470000000000368e+00 8.753280000000000172e+00
1.838410000000000100e+00 1.165340000000000042e+00 4.161330000000000418e+00 1.871990000000000043e+00 1.286189999999999944e+00 8.593299999999999272e+00 1.353499999999999981e-01 4.317669999999999675e+00 4.157960000000000100e+00 1.673199999999999965e-01 4.440389999999999837e+00 8.578739999999999810e+00 5.395260000000000389e+00 1.160800000000000054e+00 4.166249999999999787e+00 5.439329999999999998e+00 1.281409999999999938e+00 8.588070000000000093e+00 3.686700000000000088e+00 4.323929999999999829e+00 4.166940000000000310e+00 3.731860000000000177e+00 4.455189999999999984e+00 8.580799999999999983e+00 6.766999999999999404e-02 2.156350000000000211e+00 1.946290000000000076e+00 1.051900000000000057e-01 2.273899999999999810e+00 6.376570000000000071e+00 -1.631029999999999980e+00 5.311320000000000263e+00 1.948609999999999953e+00 -1.581399999999999917e+00 5.433690000000000353e+00 6.375460000000000349e+00 3.624289999999999790e+00 2.153599999999999959e+00 1.944099999999999939e+00 3.666080000000000005e+00 2.288120000000000154e+00 6.367910000000000181e+00 1.916570000000000107e+00 5.309499999999999886e+00 1.944250000000000034e+00 1.957330000000000014e+00 5.432900000000000063e+00 6.375049999999999883e+00 1.819150000000000045e+00 1.106249999999999956e+00 1.949330000000000007e+00 1.866170000000000107e+00 1.215780000000000083e+00 6.385699999999999932e+00 1.122699999999999948e-01 4.270579999999999821e+00 1.946469999999999922e+00 1.609700000000000020e-01 4.366760000000000197e+00 6.390590000000000437e+00 5.373219999999999885e+00 1.116430000000000033e+00 1.934839999999999893e+00 5.405879999999999797e+00 1.225710000000000077e+00 6.383020000000000138e+00 3.682360000000000078e+00 4.242289999999999672e+00 1.953540000000000054e+00 3.717260000000000009e+00 4.394860000000000433e+00 6.366299999999999848e+00 8.924999999999999600e-02 2.211829999999999963e+00 4.155899999999999928e+00 1.175599999999999978e-01 2.328089999999999993e+00 8.594189999999999330e+00 -1.619269999999999987e+00 5.360199999999999854e+00 4.157989999999999853e+00 -1.570570000000000022e+00 5.488730000000000331e+00 8.588979999999999393e+00 3.643139999999999823e+00 2.214739999999999931e+00 4.157119999999999926e+00 3.669470000000000010e+00 2.336689999999999934e+00 8.584039999999999893e+00 1.936050000000000049e+00 5.387579999999999814e+00 4.166870000000000296e+00 1.977810000000000068e+00 5.492399999999999949e+00 8.590049999999999741e+00
1.774540000000000006e+00 9.888900000000000468e-01 4.174050000000000260e+00 1.715170000000000083e+00 9.753100000000000103e-01 8.620520000000000849e+00 6.035999999999999699e-02 4.011499999999999844e+00 4.188279999999999781e+00 -4.819999999999999632e-03 3.995220000000000216e+00 8.618290000000000006e+00 5.371739999999999959e+00 9.916500000000000314e-01 4.172920000000000407e+00 5.331019999999999648e+00 9.667400000000000437e-01 8.604290000000000660e+00 3.654240000000000155e+00 4.024670000000000414e+00 4.178160000000000096e+00 3.592159999999999798e+00 3.997199999999999864e+00 8.619310000000000471e+00 1.932000000000000037e-02 2.015150000000000219e+00 1.957030000000000047e+00 -2.103000000000000008e-02 1.986890000000000045e+00 6.402940000000000076e+00 -1.705859999999999932e+00 5.033669999999999867e+00 1.953640000000000043e+00 -1.755540000000000100e+00 5.015240000000000364e+00 6.397700000000000387e+00 3.621469999999999967e+00 2.007730000000000015e+00 1.948520000000000030e+00 3.561360000000000081e+00 2.002429999999999932e+00 6.387620000000000076e+00 1.891550000000000065e+00 5.026959999999999873e+00 1.958110000000000017e+00 1.844440000000000079e+00 5.014549999999999841e+00 6.390279999999999738e+00 1.811979999999999924e+00 1.007160000000000055e+00 1.948069999999999968e+00 1.753549999999999942e+00 9.804599999999999982e-01 6.397179999999999644e+00 7.537000000000000643e-02 4.025280000000000413e+00 1.951989999999999892e+00 1.918999999999999873e-02 3.999890000000000168e+00 6.390080000000000204e+00 5.397269999999999790e+00 9.981999999999999762e-01 1.958229999999999915e+00 5.348609999999999864e+00 9.886500000000000288e-01 6.400940000000000296e+00 3.677579999999999849e+00 4.016449999999999854e+00 1.970879999999999965e+00 3.608969999999999789e+00 4.016619999999999635e+00 6.401370000000000005e+00 -7.709999999999999840e-03 1.998899999999999899e+00 4.185060000000000002e+00 -5.340999999999999914e-02 1.978040000000000020e+00 8.622049999999999770e+00 -1.732769999999999921e+00 5.028990000000000293e+00 4.182669999999999888e+00 -1.790340000000000042e+00 5.009739999999999860e+00 8.610039999999999694e+00 3.595369999999999955e+00 1.993489999999999984e+00 4.175189999999999735e+00 3.547530000000000072e+00 1.978739999999999943e+00 8.623860000000000525e+00 1.867180000000000062e+00 5.031410000000000160e+00 4.186899999999999622e+00 1.812149999999999928e+00 5.001409999999999911e+00 8.616419999999999746e+00
1.809988827902442976e+00 1.045002094656453551e+00 4.258989984166664300e+00 1.809988856699501936e+00 1.045002113451150461e+00 8.791379984166665551e+00 -1.476955392697611818e-05 4.179990017646748157e+00 4.258989982666712137e+00 -1.474075686798496876e-05 4.179990036441444623e+00 8.791379982666713389e+00 5.429978827911534189e+00 1.044996248660262195e+00 4.258989961166667726e+00 5.429978856708593149e+00 1.044996267454959105e+00 8.791379961166667201e+00 3.619975230443689185e+00 4.179994171650556645e+00 4.258989959666673819e+00 3.619975259240748144e+00 4.179994190445253111e+00 8.791379959666674182e+00 -2.385651271956797230e-06 2.090000008262229869e+00 1.992789991333303812e+00 -2.356854149429502721e-06 2.090000027056968079e+00 6.525189991333304462e+00 -1.810005983107642047e+00 5.224987931252524476e+00 1.992789989833351871e+00 -1.810005954310519583e+00 5.224987950047262686e+00 6.525189989833352300e+00 3.619987614357819350e+00 2.089994162266038291e+00 1.992789968333307016e+00 3.619987643154941814e+00 2.089994181060776501e+00 6.525189968333307000e+00 1.809984016889974123e+00 5.224992085256332963e+00 1.992789966833313553e+00 1.809984045687096588e+00 5.224992104051071173e+00 6.525189966833313981e+00 1.809988813522434237e+00 1.045002085271192982e+00 1.995709984166664563e+00 1.809988842319556923e+00 1.045002104065931192e+00 6.528109984166664326e+00 -1.478393393568531741e-05 4.179990008261487588e+00 1.995709982666712623e+00 -1.475513681315802332e-05 4.179990027056225799e+00 6.528109982666712163e+00 5.429978813531525006e+00 1.044996239275001626e+00 1.995709961166667767e+00 5.429978842328647914e+00 1.044996258069739836e+00 6.528109961166667752e+00 3.619975216063680445e+00 4.179994162265296076e+00 1.995709959666674305e+00 3.619975244860802910e+00 4.179994181060034286e+00 6.528109959666673845e+00 -2.371234158138701943e-06 2.090000017671707511e+00 4.261909991333304504e+00 -2.342437099147552943e-06 2.090000036466404421e+00 8.794299991333303979e+00 -1.810005968690528100e+00 5.224987940662002117e+00 4.261909989833352341e+00 -1.810005939893469140e+00 5.224987959456698583e+00 8.794299989833351816e+00 3.619977628774933009e+00 2.089994171664040667e+00 4.261909968333370990e+00 3.619977657571991969e+00 2.089994190458737577e+00 8.794299968333369577e+00 1.809984031307088070e+00 5.224992094665810605e+00 4.261909966833314023e+00 1.809984060104147030e+00 5.224992113460507070e+00 8.794299966833312610e+00