-2.893843044399999940e+02
-2.873548109999999838e+02
-2.836754041099999881e+02
-2.892803224500000283e+02
-2.890838298499999723e+02
-2.898352518099999884e+02
-2.900630013599999870e+02
-2.853877031000000102e+02
-2.901311554999999771e+02
-2.890551261400000271e+02
-2.876785854799999811e+02
-2.903862491799999930e+02
-2.890132585999999719e+02
-2.910273561999999856e+02
-2.901039472900000078e+02
-2.897225151900000242e+02
-2.911078382100000113e+02
-2.899290675899999883e+02
-2.906017014600000152e+02
-2.904859604600000011e+02
-2.897470804299999827e+02
-2.890980988800000091e+02
-2.909468554100000119e+02
-2.906681861100000219e+02
-2.903025093100000049e+02
-2.911699518400000102e+02
-2.909730723000000125e+02
-2.906580053199999725e+02
-2.908705456800000206e+02
-2.883374749100000258e+02
-2.909882086700000059e+02
-2.903647167400000058e+02
-2.906627072499999827e+02
