-1.999978900808378625e-06 -1.999990022346895069e-06 2.930000000021212945e-03 1.425252188562976545e-11 4.000012297839375621e-06 2.935999999983245415e-03 -4.999985773145994116e-06 4.000006543438844748e-06 2.932000000015334666e-03 2.000014246102776990e-06 4.000014588709128157e-06 2.934999999970410063e-03 1.535512653403154510e-11 3.000012268519565884e-06 2.928999999987434277e-03 -1.999980003413027139e-06 -9.999899930270855435e-07 2.937000000017024083e-03 2.000013072902411432e-06 5.000014571953916655e-06 2.930999999966221476e-03 -4.999985760310409199e-06 4.000006551816120875e-06 2.934000000015334498e-03 -1.999974291438218778e-06 -5.999990009778346848e-06 2.933000000037967302e-03 2.000021099188988616e-06 -1.999985432230113021e-06 2.929999999995541640e-03 -1.999976580078817767e-06 -3.999990005591025588e-06 2.934000000029590022e-03 2.224671950030438031e-11 -2.999987727287845643e-06 2.930000000012565782e-03 4.000022253134660419e-06 -2.999983132982425108e-06 2.930999999986894609e-03 -1.999978881555001249e-06 -1.999990009780980031e-06 2.933000000021212909e-03 3.000017682271913301e-06 1.000015732051660811e-06 2.933999999976557790e-03 1.000025689306428854e-06 -5.999986579756675562e-06 2.930000000018714076e-03 1.199993562841757130e-05 4.000000171542302717e-05 -2.878000000244558629e-03 -5.100007428982066655e-05 4.799992893938503512e-05 -2.992999999873746826e-03 3.099995341768866953e-05 2.400002314569946898e-05 -2.967000000299478777e-03 -5.399993599587830001e-05 -7.200007411776882253e-05 -2.900999999351857369e-03 -3.700000057841406443e-05 -1.600005481924128499e-05 -2.950999999695523568e-03 2.799986881500199503e-05 9.800001990830643198e-05 -2.918000000590184172e-03 -5.900001661813716175e-05 -2.000080048138254163e-06 -2.946999999612972751e-03 3.100001108936690711e-05 -2.599997666159025155e-05 -2.921000000090047313e-03 1.000000353671327976e-04 -4.699989736478006033e-05 -2.893000000444914243e-03 -6.900008100812137727e-05 5.399990839276015133e-05 -2.966999999783358211e-03 -2.500008076427423352e-05 5.399995904321301806e-05 -2.929000000065741429e-03 5.000133772323268323e-06 -1.330000065642971275e-04 -2.936999999475001059e-03 -7.700001534224026987e-05 -3.000100619890351165e-06 -2.926999999493263768e-03 9.899990317023540996e-05 6.800010133682406340e-05 -2.929000000920189018e-03 5.200003837975987725e-05 -4.999995272681824113e-05 -2.960000000124293762e-03 2.000002153265716936e-05 -3.499998920900998782e-05 -2.902999999981753943e-03
-5.473219999999999752e-01 3.051139999999999963e-01 7.272999999999999951e-03 -1.180130000000000068e-01 4.766800000000000204e-02 6.587999999999999412e-02 -2.146049999999999902e-01 1.896710000000000063e-01 9.730000000000000151e-04 -2.426899999999999891e-01 7.245100000000000151e-02 -1.576100000000000070e-02 -2.350740000000000052e-01 3.623899999999999899e-01 6.747999999999999658e-03 -2.680379999999999985e-01 5.651899999999999979e-02 -5.024499999999999800e-02 -1.305570000000000064e-01 3.607369999999999743e-01 -1.529790000000000039e-01 -6.282999999999999696e-02 1.613950000000000107e-01 1.114229999999999943e-01 2.946369999999999822e-01 -2.341920000000000113e-01 3.591599999999999654e-02 4.419319999999999915e-01 -9.451199999999999879e-02 3.159499999999999809e-02 2.364700000000000135e-01 -2.608659999999999868e-01 -9.877000000000000363e-03 4.174570000000000225e-01 -2.043020000000000114e-01 -8.064200000000000534e-02 6.856500000000000095e-02 -3.752349999999999852e-01 -2.586400000000000157e-02 2.142350000000000088e-01 -3.757550000000000057e-01 2.043100000000000124e-02 4.203290000000000082e-01 1.046000000000000055e-02 -3.982299999999999729e-02 3.633319999999999883e-01 -4.698160000000000114e-01 3.586299999999999905e-02 -3.792670000000000208e-01 3.233240000000000003e-01 7.108699999999999741e-02 -2.371939999999999882e-01 1.643799999999999983e-01 2.660900000000000071e-02 -5.041099999999999470e-01 7.641900000000000082e-02 6.251099999999999712e-02 -6.381130000000000413e-01 3.850589999999999846e-01 9.834000000000000727e-03 -8.219600000000000517e-02 6.247199999999999975e-02 -1.209839999999999943e-01 -7.020899999999999919e-01 5.753489999999999993e-01 1.436369999999999869e-01 -2.676620000000000110e-01 4.959850000000000092e-01 8.265799999999999537e-02 -2.270590000000000108e-01 2.668039999999999856e-01 8.722299999999999498e-02 4.462869999999999893e-01 -4.384370000000000211e-01 -2.009289999999999965e-01 3.105089999999999795e-01 -5.711700000000000110e-02 1.222349999999999964e-01 2.655069999999999930e-01 -3.588419999999999943e-01 1.667499999999999885e-02 1.420919999999999961e-01 -1.171220000000000039e-01 -2.258550000000000002e-01 5.772659999999999458e-01 -2.897529999999999828e-01 2.440529999999999922e-01 2.926540000000000252e-01 -2.408879999999999910e-01 -1.028909999999999964e-01 9.943599999999999661e-02 -3.360020000000000229e-01 -1.512300000000000033e-01 2.661149999999999904e-01 -6.335699999999999665e-02 -5.543000000000000184e-03
-1.192809999999999981e-01 -7.504800000000000360e-02 9.810699999999999976e-02 1.463199999999999917e-02 -1.650560000000000083e-01 -1.881510000000000127e-01 -2.346699999999999897e-01 -1.012170000000000014e-01 1.297929999999999917e-01 -1.753639999999999921e-01 -1.375000000000000111e-01 2.693999999999999867e-02 -3.659290000000000043e-01 1.492199999999999950e-02 1.240359999999999935e-01 -3.108630000000000004e-01 2.981710000000000194e-01 -2.294720000000000093e-01 -1.249109999999999943e-01 -2.470070000000000043e-01 2.370009999999999895e-01 -3.588500000000000023e-01 1.486689999999999956e-01 -3.090000000000000038e-02 8.560299999999999854e-02 1.109779999999999933e-01 1.362799999999999949e-02 -3.652299999999999991e-02 1.770130000000000037e-01 1.949100000000000138e-02 2.091469999999999996e-01 1.739799999999999958e-01 -3.259499999999999897e-02 3.363700000000000023e-02 1.896029999999999938e-01 -3.036600000000000063e-02 1.257070000000000132e-01 -1.841780000000000084e-01 7.310300000000000131e-02 -1.655020000000000102e-01 -9.536000000000000032e-02 -8.022300000000000264e-02 2.755279999999999951e-01 -6.962699999999999445e-02 2.035299999999999956e-02 -1.784840000000000038e-01 2.151799999999999893e-02 -1.295370000000000132e-01 2.678999999999999958e-03 4.033500000000000280e-02 -1.131810000000000038e-01 5.461400000000000282e-02 -1.448019999999999863e-01 5.786199999999999677e-02 -1.323900000000000077e-02 -1.884379999999999944e-01 -2.141089999999999938e-01 -2.449240000000000028e-01 -4.945149999999999824e-01 -1.282580000000000109e-01 -1.388000000000000067e-01 -6.859400000000000219e-02 7.421500000000000319e-02 1.839860000000000106e-01 3.154689999999999994e-01 1.129900000000000002e-02 -5.277119999999999589e-01 1.357879999999999920e-01 -1.383070000000000133e-01 2.370960000000000012e-01 -1.516569999999999863e-01 -1.162230000000000069e-01 2.797319999999999807e-01 7.765800000000000480e-02 -1.337949999999999973e-01 -5.169499999999999790e-02 2.020879999999999899e-01 1.452289999999999970e-01 3.066899999999999835e-02 2.149369999999999892e-01 -8.064000000000000334e-02 2.025160000000000016e-01 1.528259999999999896e-01 2.725520000000000165e-01 2.153430000000000066e-01 1.633110000000000117e-01 -1.351420000000000121e-01 2.451220000000000065e-01 -1.833670000000000022e-01 3.013020000000000143e-01 4.169910000000000005e-01 1.489270000000000038e-01 -3.653009999999999868e-01 4.337429999999999897e-01 -2.798240000000000172e-01 5.412919999999999954e-01
5.217499999999999916e-02 1.739340000000000053e-01 -7.531999999999999633e-03 3.579840000000000244e-01 1.839000000000000079e-01 -3.406999999999999872e-03 2.212320000000000120e-01 4.360479999999999912e-01 -1.524299999999999961e-02 6.969999999999999807e-02 5.040430000000000188e-01 1.453510000000000080e-01 5.046079999999999455e-01 5.701650000000000329e-01 1.833650000000000002e-01 4.937960000000000127e-01 6.200510000000000188e-01 -2.644000000000000170e-02 3.244469999999999854e-01 5.130599999999999744e-02 5.501500000000000140e-02 4.495700000000000252e-01 4.326470000000000038e-01 -8.777500000000000580e-02 -3.119279999999999831e-01 -4.215599999999999903e-02 2.517399999999999846e-02 -4.415350000000000108e-01 -3.820760000000000267e-01 -8.494699999999999473e-02 -7.508399999999999797e-02 -3.969779999999999975e-01 -5.270000000000000379e-03 -3.065200000000000147e-01 -3.142969999999999930e-01 1.397499999999999958e-02 -2.315959999999999963e-01 -4.674820000000000086e-01 -2.835100000000000120e-02 -1.289299999999999891e-01 -4.492120000000000002e-01 -9.899600000000000066e-02 -4.067430000000000212e-01 -2.946039999999999770e-01 2.194799999999999876e-02 -2.437469999999999914e-01 3.518600000000000200e-02 -1.596360000000000001e-01 3.597659999999999747e-01 3.993619999999999948e-01 7.055999999999999772e-02 5.950370000000000381e-01 5.561450000000000005e-01 4.233900000000000163e-02 2.770429999999999837e-01 2.544359999999999955e-01 1.918080000000000063e-01 3.461710000000000065e-01 4.116679999999999784e-01 9.388999999999999777e-03 1.750990000000000046e-01 2.455140000000000100e-01 -1.284069999999999934e-01 9.096400000000000319e-02 1.732980000000000076e-01 2.639719999999999844e-01 2.013099999999999890e-01 4.745590000000000086e-01 1.417180000000000106e-01 2.828390000000000071e-01 2.226349999999999996e-01 1.017210000000000059e-01 -1.459860000000000047e-01 -4.613510000000000111e-01 -1.850569999999999993e-01 -5.275999999999999579e-01 -5.249089999999999590e-01 -4.839600000000000152e-02 -1.034010000000000068e-01 -3.669399999999999884e-01 -8.309400000000000119e-02 -2.896639999999999771e-01 -4.211250000000000271e-01 -7.877199999999999480e-02 -4.607390000000000096e-01 1.120710000000000039e-01 -1.336200000000000061e-02 -3.907200000000000117e-01 -4.131179999999999852e-01 -5.912900000000000100e-02 -5.209749999999999659e-01 -7.958439999999999959e-01 -8.446299999999999641e-02 -2.165719999999999867e-01 -5.268779999999999575e-01 -6.805700000000000638e-02
-9.381000000000000449e-03 -2.405970000000000053e-01 -8.081399999999999695e-02 7.391399999999999360e-02 5.215899999999999703e-02 4.596399999999999791e-02 2.129989999999999939e-01 -1.384400000000000040e-02 2.896999999999999836e-03 4.671000000000000152e-02 3.769399999999999834e-02 -1.012760000000000049e-01 -1.016700000000000069e-02 -1.054530000000000051e-01 4.918800000000000255e-02 -4.710999999999999910e-03 3.200499999999999873e-02 -6.356299999999999450e-02 -2.095100000000000018e-01 -1.075900000000000051e-01 -1.800009999999999943e-01 1.113070000000000032e-01 -1.515900000000000060e-02 7.400600000000000234e-02 -1.945939999999999892e-01 -1.147029999999999994e-01 1.158799999999999934e-02 -1.386850000000000027e-01 -3.681100000000000344e-02 1.655999999999999833e-02 -4.189840000000000231e-01 -1.297290000000000110e-01 1.815999999999999906e-03 3.904900000000000038e-02 1.679869999999999974e-01 -1.138300000000000076e-02 -6.386999999999999622e-02 -1.027999999999999921e-02 -1.058000000000000086e-02 1.777670000000000083e-01 -1.631529999999999925e-01 7.002600000000000491e-02 -4.881499999999999728e-02 1.314799999999999996e-02 1.141260000000000052e-01 -1.889069999999999916e-01 2.362120000000000053e-01 1.253400000000000000e-02 1.310500000000000033e-02 -7.470400000000000651e-02 1.061809999999999976e-01 9.143199999999999938e-02 -1.173850000000000032e-01 -1.276859999999999939e-01 2.151889999999999914e-01 2.322899999999999965e-02 1.318399999999999954e-02 -2.384199999999999861e-02 6.366700000000000137e-02 -1.059100000000000041e-01 1.892330000000000123e-01 -2.473900000000000057e-02 -3.603900000000000159e-02 -1.344499999999999862e-01 7.939699999999999536e-02 1.375409999999999966e-01 4.128789999999999960e-01 3.232289999999999885e-01 9.323900000000000243e-02 2.177900000000000114e-01 -2.242039999999999866e-01 4.321099999999999941e-02 1.587830000000000075e-01 2.821900000000000103e-02 -1.892100000000000032e-02 -1.797610000000000041e-01 -1.201999999999999943e-03 2.915699999999999889e-02 -6.971499999999999919e-02 3.601239999999999997e-01 -8.788999999999999937e-03 -3.060849999999999960e-01 -2.706000000000000072e-01 6.674299999999999677e-02 -1.339440000000000075e-01 3.084850000000000092e-01 1.802130000000000121e-01 1.640999999999999959e-01 1.229689999999999950e-01 -1.487249999999999961e-01 -3.935999999999999915e-02 -2.391449999999999965e-01 -7.310300000000000131e-02 5.052500000000000047e-02 4.077399999999999775e-02 -1.013819999999999999e-01
2.968600000000000058e-02 4.237159999999999815e-01 -4.296500000000000319e-02 -1.154379999999999989e-01 3.491299999999999959e-01 -3.803000000000000130e-02 -3.862229999999999830e-01 5.063360000000000083e-01 9.367000000000000326e-03 1.014700000000000046e-01 3.241100000000000092e-01 8.026999999999999413e-03 -1.736929999999999863e-01 3.179400000000000004e-01 3.747700000000000337e-02 -2.033899999999999875e-01 3.669910000000000116e-01 1.738900000000000168e-02 1.388999999999999957e-02 2.368089999999999917e-01 -1.134890000000000065e-01 -4.980899999999999772e-01 4.459790000000000143e-01 1.060099999999999931e-02 1.031880000000000019e-01 -4.635549999999999948e-01 -6.239999999999999887e-03 2.309329999999999994e-01 -3.893229999999999746e-01 5.121099999999999958e-02 6.701100000000000112e-02 -3.444450000000000012e-01 8.366999999999999438e-02 1.951600000000000001e-01 -3.035700000000000065e-01 -2.825799999999999840e-02 8.761199999999999544e-02 -2.315869999999999873e-01 8.654699999999999893e-02 4.073000000000000231e-03 -4.624800000000000022e-01 -1.164310000000000067e-01 2.777040000000000064e-01 -1.133220000000000061e-01 2.126199999999999965e-02 2.655359999999999943e-01 -3.343280000000000141e-01 5.191599999999999687e-02 -2.952609999999999957e-01 3.883349999999999858e-01 7.775899999999999479e-02 -3.398709999999999787e-01 2.581249999999999933e-01 2.563299999999999954e-02 -2.846980000000000066e-01 3.012699999999999823e-01 2.582200000000000120e-02 -3.095160000000000133e-01 4.401189999999999825e-01 -1.177699999999999997e-01 -4.067500000000000282e-02 4.137149999999999994e-01 -2.176069999999999949e-01 -2.214019999999999877e-01 1.888299999999999979e-01 2.220209999999999961e-01 2.460999999999999993e-02 2.517110000000000181e-01 -1.448029999999999873e-01 -2.669560000000000266e-01 7.559649999999999981e-01 1.366630000000000067e-01 4.085179999999999922e-01 -3.863260000000000027e-01 2.801599999999999924e-02 -7.964599999999999458e-02 -3.475159999999999916e-01 1.132119999999999932e-01 4.754740000000000077e-01 -3.683100000000000263e-01 -8.205700000000000494e-02 2.193120000000000069e-01 -3.318679999999999963e-01 3.147400000000000198e-02 6.949900000000000522e-02 -5.777459999999999818e-01 -1.014599999999999946e-01 5.602740000000000498e-01 -6.176310000000000411e-01 1.797199999999999839e-02 -8.090899999999999481e-02 -2.054350000000000065e-01 6.477299999999999724e-02 1.618179999999999896e-01 -4.916389999999999927e-01 -1.116990000000000066e-01
-1.554520000000000068e-01 -2.336280000000000023e-01 1.565650000000000097e-01 -1.484119999999999884e-01 -1.896849999999999925e-01 -3.269299999999999984e-02 -1.847820000000000018e-01 -2.137010000000000021e-01 1.708210000000000006e-01 -8.865499999999999770e-02 -3.713650000000000007e-01 -1.408649999999999902e-01 -2.398700000000000138e-02 -1.332129999999999981e-01 1.003300000000000025e-01 -4.917500000000000343e-02 -7.937800000000000411e-02 -1.270899999999999981e-02 1.989990000000000092e-01 -2.793800000000000172e-01 5.668299999999999728e-02 -3.410500000000000337e-02 -3.844020000000000215e-01 5.367500000000000049e-02 3.747700000000000337e-02 1.400029999999999886e-01 2.516000000000000007e-03 5.521800000000000319e-02 1.888650000000000051e-01 -5.774999999999999752e-03 -1.851470000000000060e-01 7.845599999999999796e-02 1.033329999999999943e-01 -8.525099999999999345e-02 -3.636199999999999849e-02 -1.680260000000000087e-01 -8.198700000000000432e-02 3.124299999999999994e-02 -5.025199999999999806e-02 1.798599999999999921e-01 -2.060499999999999832e-02 -6.687400000000000289e-02 1.615479999999999972e-01 -3.388300000000000339e-02 -1.560930000000000095e-01 -1.011199999999999946e-02 2.167640000000000122e-01 -3.478200000000000042e-02 1.919299999999999895e-01 -2.135299999999999976e-01 -1.916199999999999848e-02 1.439700000000000008e-02 -7.179099999999999371e-02 -5.924499999999999905e-02 -6.990499999999999492e-02 -1.470220000000000138e-01 -6.726400000000000434e-02 1.042069999999999941e-01 -1.660220000000000029e-01 -2.190800000000000039e-02 -3.014379999999999837e-01 1.741399999999999892e-02 -6.426199999999999968e-02 -3.041050000000000142e-01 -3.087650000000000117e-01 1.500279999999999947e-01 1.427879999999999983e-01 -8.877400000000000568e-02 1.622799999999999937e-02 -1.288500000000000062e-02 -4.700200000000000211e-02 -9.956900000000000472e-02 2.177320000000000089e-01 3.340400000000000036e-01 -1.124489999999999934e-01 1.933630000000000071e-01 4.088669999999999805e-01 3.485100000000000003e-02 1.557499999999999996e-01 1.497989999999999877e-01 -2.275389999999999913e-01 3.513450000000000184e-01 5.108239999999999448e-01 2.087980000000000114e-01 -1.340800000000000047e-01 3.676730000000000276e-01 -1.797350000000000059e-01 2.976960000000000162e-01 7.430200000000000693e-02 2.132310000000000039e-01 -1.701870000000000049e-01 1.958070000000000088e-01 1.667190000000000061e-01 -2.626450000000000173e-01 3.044510000000000272e-01 8.542399999999999993e-02
4.064710000000000267e-01 -2.945110000000000228e-01 1.642720000000000014e-01 2.901290000000000258e-01 2.584380000000000011e-01 -1.182710000000000011e-01 4.090710000000000179e-01 3.922199999999999992e-02 1.663880000000000081e-01 3.897019999999999929e-01 -3.469099999999999961e-02 -1.552189999999999959e-01 1.658389999999999864e-01 -7.100800000000000167e-02 -1.443799999999999945e-02 2.044189999999999896e-01 -1.527300000000000012e-02 4.432699999999999835e-02 2.788519999999999888e-01 -3.716889999999999916e-01 -1.711759999999999948e-01 3.212650000000000228e-01 1.710599999999999968e-02 1.653400000000000009e-02 -5.022029999999999550e-01 4.973000000000000337e-02 6.044599999999999973e-02 -9.240999999999999215e-03 2.486480000000000079e-01 5.411300000000000138e-02 -4.255590000000000206e-01 -8.054699999999999360e-02 -1.394309999999999994e-01 -2.385940000000000005e-01 -2.499409999999999965e-01 -8.649000000000000438e-03 -3.445329999999999782e-01 8.788200000000000178e-02 6.061099999999999821e-02 -2.855070000000000108e-01 -1.938809999999999978e-01 -1.076799999999999979e-02 -3.011860000000000093e-01 1.391479999999999939e-01 -1.537499999999999978e-02 -3.187470000000000026e-01 -2.887810000000000099e-01 1.238820000000000060e-01 3.895669999999999966e-01 2.821800000000000003e-02 -1.052519999999999983e-01 -4.311199999999999755e-02 6.662099999999999966e-02 -8.670200000000000129e-02 3.790819999999999745e-01 -1.901150000000000062e-01 5.321000000000000209e-03 2.068659999999999943e-01 -7.559299999999999353e-02 -1.060640000000000055e-01 5.342770000000000019e-01 -2.637199999999999961e-02 1.213000000000000050e-01 3.410050000000000026e-01 1.084380000000000066e-01 1.359489999999999865e-01 5.576200000000000045e-01 -6.630500000000000282e-02 2.678539999999999810e-01 5.814040000000000319e-01 4.433830000000000271e-01 -1.278090000000000059e-01 -3.962080000000000046e-01 -1.623700000000000143e-02 -5.328499999999999903e-02 -2.183199999999999863e-01 -9.619600000000000373e-02 -1.115000000000000019e-01 -6.528530000000000166e-01 3.456960000000000033e-01 1.187050000000000050e-01 -2.985019999999999896e-01 -1.893430000000000113e-01 1.951700000000000101e-01 -2.036260000000000014e-01 4.156009999999999982e-01 -2.306660000000000099e-01 -3.153710000000000124e-01 -1.698999999999999955e-01 4.230000000000000253e-03 -3.194420000000000037e-01 7.074999999999999345e-02 1.345699999999999952e-01 -5.825599999999999667e-01 1.114990000000000009e-01 -2.190650000000000097e-01
3.240099999999999925e-02 -8.452999999999999403e-02 -1.403369999999999895e-01 -1.669930000000000025e-01 -2.660870000000000180e-01 3.803700000000000137e-02 -1.058960000000000040e-01 1.048140000000000044e-01 4.483499999999999985e-02 -2.165650000000000075e-01 4.690300000000000025e-02 -1.013259999999999994e-01 -1.959140000000000048e-01 1.337999999999999953e-02 1.636699999999999960e-02 -1.182290000000000008e-01 -1.467769999999999908e-01 -4.010099999999999776e-02 7.868999999999999259e-03 9.342000000000000304e-02 2.876300000000000037e-02 -3.846000000000000026e-03 1.474300000000000055e-01 5.035000000000000413e-03 1.490740000000000121e-01 -1.638900000000000079e-01 -3.414400000000000074e-02 8.040100000000000025e-02 3.328600000000000309e-02 9.102599999999999580e-02 8.190600000000000658e-02 6.232399999999999746e-02 1.050799999999999998e-02 -5.590000000000000351e-04 6.218699999999999922e-02 3.134699999999999986e-02 1.028300000000000047e-01 -1.749620000000000064e-01 2.312649999999999983e-01 2.333840000000000081e-01 -5.348900000000000182e-02 -1.986640000000000073e-01 -7.216000000000000192e-03 9.339400000000000479e-02 1.108669999999999933e-01 2.425499999999999878e-02 -5.860300000000000231e-02 -4.190499999999999781e-02 -1.211740000000000039e-01 1.023850000000000038e-01 4.368000000000000355e-03 -1.704440000000000122e-01 2.095100000000000018e-01 -3.669999999999999760e-04 6.697699999999999487e-02 1.862649999999999861e-01 3.172099999999999920e-02 1.521319999999999895e-01 -2.346830000000000027e-01 5.636399999999999744e-02 -1.932369999999999921e-01 -1.143259999999999971e-01 -1.602200000000000152e-02 -2.102650000000000075e-01 2.387660000000000060e-01 2.577929999999999944e-01 -1.910519999999999996e-01 6.692199999999999538e-02 -1.135769999999999974e-01 -1.259490000000000054e-01 -1.336779999999999913e-01 3.728299999999999670e-02 1.072359999999999980e-01 2.960099999999999884e-02 1.599199999999999927e-02 1.925850000000000062e-01 -5.013499999999999901e-02 -1.532959999999999878e-01 1.279520000000000102e-01 3.384600000000000108e-02 -6.311200000000000143e-02 9.540700000000000569e-02 8.372000000000000275e-02 8.307599999999999707e-02 1.546440000000000037e-01 -2.057479999999999865e-01 3.926000000000000323e-02 1.159229999999999983e-01 -7.468700000000000339e-02 -9.797599999999999365e-02 -1.127480000000000010e-01 -2.456399999999999903e-02 -2.639119999999999799e-01 2.151089999999999947e-01 1.780069999999999986e-01 1.308300000000000018e-01
3.576010000000000022e-01 -3.435520000000000240e-01 -1.728000000000000022e-02 3.783250000000000224e-01 -2.714829999999999743e-01 -3.091899999999999857e-02 2.866759999999999864e-01 -2.672979999999999801e-01 1.775200000000000042e-02 4.195729999999999738e-01 -3.741499999999999826e-01 1.472330000000000028e-01 2.137100000000000111e-01 -9.284399999999999598e-02 -9.367999999999999938e-02 -4.484500000000000292e-02 -1.668119999999999881e-01 1.760199999999999959e-02 2.780480000000000174e-01 -3.348099999999999965e-01 -1.200500000000000039e-01 2.777330000000000076e-01 -5.264130000000000198e-01 1.064439999999999970e-01 -2.719909999999999828e-01 3.273139999999999938e-01 -2.776599999999999902e-02 -1.992879999999999929e-01 1.053110000000000018e-01 2.245799999999999880e-02 -4.014800000000000035e-01 2.837569999999999815e-01 -1.936299999999999827e-02 -3.501250000000000195e-01 2.240939999999999876e-01 -1.451099999999999959e-02 -3.238699999999999912e-01 2.776069999999999927e-01 -3.776999999999999802e-02 -3.833250000000000268e-01 2.102999999999999869e-01 1.118689999999999962e-01 -9.906099999999999628e-02 2.858550000000000257e-01 8.660000000000000163e-04 -2.763939999999999730e-01 2.661760000000000237e-01 1.862700000000000120e-02 3.105660000000000087e-01 -3.950099999999999723e-01 5.740100000000000063e-02 1.997829999999999884e-01 -1.144379999999999981e-01 -2.190239999999999965e-01 5.692679999999999962e-01 -5.356309999999999683e-01 1.017239999999999950e-01 3.507649999999999935e-01 -2.287909999999999944e-01 -2.781939999999999968e-01 4.134880000000000222e-01 -6.669389999999999485e-01 2.263120000000000132e-01 4.867199999999999860e-01 -2.949140000000000095e-01 -1.247950000000000031e-01 3.263900000000000134e-02 8.267399999999999749e-02 -1.031360000000000054e-01 2.648309999999999831e-01 -4.586819999999999786e-01 1.657959999999999989e-01 -3.599990000000000134e-01 4.360640000000000072e-01 1.499610000000000110e-01 -1.886639999999999984e-01 5.177509999999999613e-01 -1.191419999999999979e-01 -1.390309999999999879e-01 5.296229999999999549e-01 9.452199999999999491e-02 -5.060499999999999998e-01 4.109900000000000220e-01 -1.563799999999999912e-02 -3.891680000000000139e-01 3.250739999999999741e-01 1.666130000000000111e-01 -1.721920000000000117e-01 4.897719999999999851e-01 -6.920800000000000562e-02 -4.086429999999999785e-01 4.784900000000000264e-02 -1.439479999999999926e-01 -3.255990000000000273e-01 2.515569999999999751e-01 2.924799999999999969e-02
2.500269999999999992e-01 4.419560000000000155e-01 3.556000000000000133e-03 4.805579999999999852e-01 3.359070000000000111e-01 -1.615799999999999875e-02 2.907500000000000015e-02 4.696719999999999784e-01 -8.799999999999999489e-02 1.672500000000000098e-01 4.356140000000000012e-01 -2.704600000000000060e-02 2.383379999999999943e-01 4.291249999999999787e-01 3.328500000000000208e-02 7.255699999999999650e-02 4.049240000000000061e-01 1.390190000000000037e-01 1.291750000000000120e-01 2.009970000000000090e-01 -1.800600000000000117e-02 2.465630000000000044e-01 3.200600000000000112e-01 1.008299999999999995e-02 -2.069370000000000098e-01 -5.564649999999999874e-01 -1.559199999999999996e-02 -3.736889999999999934e-01 -4.351670000000000260e-01 -8.792500000000000315e-02 -2.056810000000000027e-01 -2.716779999999999751e-01 -3.765000000000000117e-03 -2.821770000000000111e-01 -3.664339999999999820e-01 -6.635000000000000273e-03 -1.538899999999999990e-01 -4.475640000000000174e-01 2.297300000000000036e-02 -1.038779999999999981e-01 -5.312719999999999665e-01 8.933199999999999474e-02 -1.408290000000000097e-01 -2.455720000000000125e-01 -4.655399999999999816e-02 -4.322650000000000103e-01 -1.855819999999999970e-01 7.571799999999999364e-02 -3.794000000000000150e-02 2.568750000000000200e-01 1.343930000000000125e-01 3.026519999999999766e-01 4.928549999999999875e-01 3.244899999999999868e-02 2.264839999999999909e-01 5.438749999999999973e-01 8.347799999999999665e-02 3.799640000000000239e-01 5.878149999999999764e-01 1.835479999999999889e-01 4.928600000000000203e-01 3.414490000000000025e-01 -5.156899999999999679e-02 2.415509999999999879e-01 3.928719999999999990e-01 2.878000000000000003e-02 2.297599999999999920e-01 7.957779999999999854e-01 -1.851599999999999913e-01 5.571380000000000221e-01 3.286069999999999824e-01 -3.644300000000000317e-02 -1.707339999999999969e-01 -5.129629999999999468e-01 -2.023890000000000133e-01 -3.814989999999999770e-01 -3.765910000000000091e-01 -1.149999999999999981e-03 -1.271450000000000080e-01 -5.529770000000000518e-01 -1.362140000000000017e-01 -1.974289999999999934e-01 -5.795919999999999961e-01 1.812380000000000102e-01 -3.706929999999999947e-01 -2.366360000000000130e-01 1.245809999999999973e-01 -3.371629999999999905e-01 -4.142680000000000251e-01 -1.488649999999999973e-01 -2.515089999999999826e-01 -6.085920000000000218e-01 -1.785229999999999873e-01 -2.704940000000000122e-01 -4.570270000000000166e-01 1.075600000000000028e-01
-8.999990602998172231e-06 -4.194616242132582210e-12 1.479000000057182620e-03 1.500000705112103658e-05 2.000023312641246063e-06 1.470999999896402399e-03 1.282684277367081111e-11 -2.999993875245463358e-06 1.477000000012440150e-03 -1.999997538939904265e-06 6.000003804832031969e-06 1.470999999987826880e-03 9.000007082893061013e-06 2.000016448266800414e-06 1.475999999934524045e-03 -1.299999637235377942e-05 4.999991194574570841e-06 1.474000000061863325e-03 2.000001326246656267e-06 7.000008403197013924e-06 1.472999999958265506e-03 4.000017404205047043e-06 -6.999989293464196838e-06 1.475000000003612744e-03 -6.999987160445386769e-06 -3.000001899578198537e-06 1.479000000056915690e-03 -9.999918013503916607e-07 1.000004952353357712e-06 1.471000000002206870e-03 -7.999983756012312900e-06 -6.000003071974769714e-06 1.473000000075709321e-03 1.051909947620465526e-11 -9.999938835402838829e-07 1.475000000004146605e-03 4.000004743384983864e-06 4.000010681648049580e-06 1.468999999957998478e-03 -9.999883079673728199e-07 -1.999995014470651562e-06 1.479000000014647201e-03 2.000008230415705042e-06 1.000008415641219704e-06 1.475999999983146176e-03 -2.999987198569708866e-06 -2.999997334386573489e-06 1.473000000031500977e-03 1.499996998579129334e-05 1.800001110459310610e-05 -1.473000000169945572e-03 -2.600001396799006933e-05 3.999964043922667841e-06 -1.475999999851393060e-03 -7.000029791817708737e-06 1.799998600433267397e-05 -1.438000000030166016e-03 -2.800001071604308340e-05 9.999616244860180590e-07 -1.505999999826245286e-03 -3.200002087850877962e-05 9.999957142223508001e-06 -1.479999999838151580e-03 2.999960837422995333e-06 2.599999735510519040e-05 -1.468000000126876061e-03 -1.900000262624024330e-05 -6.000028010526298742e-06 -1.496999999854400822e-03 1.199997701703460749e-05 1.200000775741825001e-05 -1.450000000126004359e-03 2.399994936858243754e-05 3.600002145712408299e-05 -1.467000000301769665e-03 6.000050267584311768e-06 -5.199999925205037518e-05 -1.479999999822490930e-03 7.300000792373798585e-05 -1.499992229372491243e-05 -1.462000000401612963e-03 -6.499998877975015385e-05 -1.800008074658694478e-05 -1.484999999512373343e-03 -3.999965823076039033e-06 -3.800001074382694565e-05 -1.483999999817009301e-03 1.999994474674486134e-05 4.000001684631555133e-05 -1.472000000292942104e-03 -5.399997500318738799e-05 -3.000006811973391784e-05 -1.483999999532502291e-03 9.100000214801427258e-05 -9.999901663284102858e-06 -1.468000000536711855e-03