9.287879999999999470e+00 0.000000000000000000e+00 0.000000000000000000e+00 4.643939999999999735e+00 8.043540027000000592e+00 0.000000000000000000e+00 4.643939999999999735e+00 2.681180009000000197e+00 7.583522263999999957e+00
9.287879999999999470e+00 0.000000000000000000e+00 0.000000000000000000e+00 4.643939999999999735e+00 8.043540027000000592e+00 0.000000000000000000e+00 4.643939999999999735e+00 2.681180009000000197e+00 7.583522263999999957e+00
9.287879999999999470e+00 0.000000000000000000e+00 0.000000000000000000e+00 4.643939999999999735e+00 8.043540027000000592e+00 0.000000000000000000e+00 4.643939999999999735e+00 2.681180009000000197e+00 7.583522263999999957e+00
