-4.299353364699999815e+02
-4.299240108800000257e+02
-4.299101071399999796e+02
