-1.310500000000000033e-02 -7.565999999999999809e-03 1.468079999999999941e-01 -1.233390000000000042e-01 -7.120999999999999552e-02 -3.309200000000000336e-02 2.862800000000000067e-02 1.652800000000000102e-02 3.666500000000000314e-02 -4.760999999999999607e-03 -2.748000000000000009e-03 3.601000000000000034e-03 -1.921099999999999891e-02 -1.108999999999999916e-02 -4.144500000000000267e-02 2.960064000000000028e+00 -1.705556999999999990e+00 -1.206067999999999918e+00 2.955928000000000111e+00 -1.707819999999999894e+00 -1.211595999999999895e+00 3.688799999999999718e-02 6.119900000000000340e-02 -4.408499999999999919e-02 -1.095899999999999999e-02 -8.229400000000000603e-02 3.724899999999999739e-02 2.384299999999999961e-02 -5.467700000000000338e-02 2.863500000000000073e-02 5.279999999999999971e-03 -6.539999999999999980e-02 -2.693000000000000081e-03 2.977000000000000045e-03 3.416269999999999918e+00 -1.206067000000000000e+00 -1.052999999999999900e-03 3.413815000000000044e+00 -1.211594000000000060e+00 7.144399999999999362e-02 1.347000000000000107e-03 -4.408499999999999919e-02 -3.031486999999999821e+00 -1.750229999999999952e+00 2.474749999999999783e+00 -2.948602000000000167e+00 -1.702374999999999972e+00 -1.271506999999999943e+00 5.382699999999999985e-02 3.107700000000000046e-02 3.632319999999999993e+00 6.103800000000000198e-02 -7.286499999999999921e-02 3.702500000000000235e-02 3.788099999999999801e-02 -6.615200000000000247e-02 -1.412999999999999977e-03 2.142799999999999913e-02 -9.573500000000000065e-02 -2.763300000000000131e-02 -7.674799999999999678e-02 3.165699999999999764e-02 3.724800000000000333e-02 -3.543000000000000316e-02 4.798899999999999694e-02 2.863500000000000073e-02 -5.399700000000000333e-02 3.727300000000000058e-02 -2.694000000000000214e-03 -3.258300000000000085e-02 8.929199999999999637e-02 3.702400000000000135e-02 -3.834900000000000114e-02 6.588199999999999612e-02 -1.412000000000000061e-03 -7.219399999999999429e-02 6.642499999999999793e-02 -2.763300000000000131e-02 -3.662800000000000084e-02 -2.114800000000000013e-02 6.597799999999999498e-02 -6.598299999999999998e-02 -3.809599999999999792e-02 1.911399999999999905e-02 -2.582999999999999879e-02 -1.491299999999999917e-02 2.268699999999999883e-02 -3.064509999999999734e-01 -1.769300000000000039e-01 2.515530000000000266e-01 -2.021380000000000121e-01 1.284579999999999889e-01 7.824899999999999911e-02 -2.412549999999999972e-01 3.015299999999999925e-02 -1.130810000000000010e-01 -3.666599999999999721e-02 1.482479999999999909e-01 2.218209999999999904e-01 -9.341599999999999904e-02 1.712940000000000018e-01 -1.224380000000000052e-01 -8.064100000000000434e-02 3.618359999999999910e-01 -7.651900000000000368e-02 3.693999999999999801e-03 2.273189999999999933e-01 3.604299999999999865e-02 1.017999999999999981e-02 -2.392880000000000007e-01 7.824599999999999611e-02 -9.451600000000000279e-02 -2.240099999999999869e-01 -1.130820000000000020e-01 1.100539999999999990e-01 -1.058769999999999989e-01 2.218229999999999924e-01 -8.475999999999999160e-03 -4.891000000000000382e-03 -3.911400000000000293e-02 3.994899999999999840e-02 2.306199999999999917e-02 -3.220800000000000052e-02 2.771900000000000058e-02 1.600199999999999886e-02 1.986500000000000071e-02 9.957499999999999685e-02 1.850340000000000040e-01 -1.190729999999999983e-01 9.347500000000000253e-02 1.815289999999999959e-01 -1.299130000000000007e-01 -1.284000000000000072e-02 2.033899999999999944e-02 -1.154999999999999994e-03 1.016340000000000021e-01 -1.665530000000000066e-01 -1.224390000000000062e-01 2.730460000000000109e-01 -2.507499999999999729e-01 -7.652000000000000468e-02 1.987089999999999967e-01 -1.104580000000000006e-01 3.604099999999999665e-02 2.100319999999999965e-01 -6.279999999999999992e-03 -1.190699999999999953e-01 2.039430000000000132e-01 -9.816000000000000072e-03 -1.299119999999999997e-01 1.119200000000000056e-02 -2.129100000000000090e-02 -1.157000000000000042e-03 -6.558999999999999726e-03 -3.784000000000000037e-03 3.761000000000000020e-03 2.049399999999999833e-02 1.183200000000000050e-02 -5.271999999999999777e-03 1.029599999999999960e-02 5.943999999999999631e-03 -2.117099999999999885e-02
7.258999999999999828e-03 -3.090999999999999998e-03 -2.533999999999999794e-03 -5.097299999999999748e-02 2.974900000000000114e-02 2.218200000000000033e-02 1.082699999999999982e-02 -3.095399999999999888e-02 4.010199999999999876e-02 -1.808500000000000038e-02 -4.762199999999999767e-02 -6.983999999999999757e-03 2.785199999999999829e-02 -1.473000000000000004e-02 -1.011800000000000026e-02 2.967735999999999930e+00 -1.713740000000000041e+00 -1.210987999999999953e+00 3.108700000000000005e-02 3.859100000000000030e-02 -7.324999999999999914e-03 9.705999999999999350e-03 2.694900000000000073e-02 -4.270899999999999697e-02 3.339199999999999807e-02 8.158999999999999586e-03 4.007499999999999951e-02 2.977454999999999963e+00 -1.718839000000000006e+00 -1.215794999999999959e+00 -1.748200000000000101e-02 -2.120800000000000116e-02 -4.235300000000000176e-02 1.355699999999999961e-02 3.371783999999999892e+00 -1.199940999999999924e+00 5.362999999999999712e-02 -3.225499999999999895e-02 -1.738900000000000168e-02 5.025899999999999812e-02 -3.491299999999999959e-02 -2.435199999999999865e-02 -2.913520000000000110e+00 -1.698093999999999992e+00 -1.199939000000000089e+00 5.025099999999999706e-02 3.438607000000000191e+00 -1.249530000000000030e+00 1.237700000000000085e-02 -8.814999999999999919e-03 3.577818999999999861e+00 5.257400000000000267e-02 -3.014999999999999972e-02 3.659740999999999911e+00 -2.953475000000000072e+00 -1.765798999999999896e+00 -1.248901000000000039e+00 5.543100000000000110e-02 -2.588700000000000029e-02 -2.434700000000000059e-02 -3.008500000000000063e-02 1.872700000000000059e-02 6.890100000000000391e-02 -4.121099999999999763e-02 6.028000000000000372e-03 2.301800000000000027e-02 -7.579299999999999926e-02 -7.682999999999999725e-03 -5.117000000000000021e-03 -5.395500000000000296e-02 5.358500000000000069e-02 3.777900000000000008e-02 -7.473599999999999688e-02 4.167900000000000077e-02 5.564000000000000369e-03 -3.113000000000000142e-02 7.065399999999999459e-02 -5.477000000000000098e-03 -7.240399999999999614e-02 2.063699999999999909e-02 3.814499999999999835e-02 -2.572899999999999840e-02 3.284900000000000320e-02 2.300500000000000114e-02 -4.001899999999999902e-02 2.459799999999999834e-02 -1.258000000000000004e-03 -2.990510000000000113e-01 5.563200000000000089e-02 -7.468400000000000039e-02 -1.025810000000000055e-01 1.690230000000000066e-01 2.458970000000000045e-01 -3.013350000000000195e-01 -5.429400000000000198e-02 7.603000000000000036e-02 -1.973360000000000114e-01 5.660000000000000100e-03 2.455980000000000107e-01 -1.038789999999999991e-01 2.879220000000000113e-01 7.592599999999999349e-02 -1.960999999999999965e-01 2.348830000000000084e-01 -7.496400000000000285e-02 -3.466500000000000137e-02 1.989300000000000096e-02 1.363100000000000075e-02 -9.230700000000000016e-02 -1.613330000000000042e-01 -1.148760000000000059e-01 1.058820000000000039e-01 1.178359999999999963e-01 -1.040429999999999966e-01 9.380700000000000149e-02 -5.377900000000000041e-02 1.890010000000000023e-01 1.034810000000000035e-01 -6.146999999999999686e-02 1.440510000000000124e-01 -4.873899999999999760e-02 -1.493269999999999875e-01 -1.043199999999999961e-01 -1.309399999999999974e-02 -5.396499999999999908e-02 2.523500000000000049e-02 9.274599999999999511e-02 1.599939999999999973e-01 -1.151969999999999938e-01 -1.202199999999999970e-02 6.816000000000000010e-03 -5.779499999999999915e-02 3.869999999999999829e-02 3.584299999999999986e-02 2.519199999999999912e-02 8.704800000000000038e-02 -1.763200000000000045e-01 -1.254810000000000092e-01 1.980540000000000078e-01 -1.124750000000000055e-01 5.510500000000000120e-02 1.201900000000000017e-02 1.436400000000000003e-02 -1.300800000000000047e-02 1.953270000000000006e-01 1.207300000000000040e-02 -1.257089999999999874e-01 9.318799999999999306e-02 -1.912969999999999948e-01 -1.340500000000000025e-01 2.105019999999999947e-01 -1.232520000000000004e-01 5.813999999999999724e-02 1.082100000000000076e-02 -7.739000000000000219e-03 1.644800000000000081e-02 2.120249999999999913e-01 1.469799999999999926e-02 -1.340919999999999890e-01 -7.287000000000000074e-03 -1.819700000000000137e-02 -1.330600000000000012e-02
2.743400000000000005e-02 1.583899999999999891e-02 -2.156599999999999837e-02 -2.824000000000000121e-02 -1.630200000000000052e-02 2.087400000000000019e-02 6.545999999999999736e-03 3.776999999999999975e-03 2.734899999999999831e-02 -1.980499999999999969e-02 -1.143599999999999998e-02 -1.558499999999999990e-02 -4.138300000000000312e-02 -2.389200000000000004e-02 3.554399999999999921e-02 2.967843999999999927e+00 -1.678746999999999989e+00 -1.223390999999999895e+00 -5.565400000000000208e-02 3.025600000000000164e-02 -4.543599999999999722e-02 -1.389999999999999905e-04 6.302599999999999869e-02 4.480499999999999761e-02 -4.191399999999999987e-02 -1.265699999999999985e-02 3.536000000000000081e-03 -5.695999999999999674e-03 2.671000000000000110e-02 -6.032000000000000035e-03 -1.927200000000000094e-02 4.429999999999999802e-04 4.116399999999999920e-02 3.007999999999999910e-02 3.409603000000000161e+00 -1.223389000000000060e+00 -1.616000000000000032e-03 -6.332899999999999641e-02 -4.543799999999999922e-02 5.451000000000000290e-02 -3.163400000000000239e-02 4.480599999999999861e-02 -2.970403000000000127e+00 -1.714963000000000015e+00 -1.221214000000000022e+00 4.031699999999999867e-02 2.327699999999999908e-02 -3.568799999999999750e-02 6.218999999999999702e-03 3.589999999999999875e-03 3.639340999999999937e+00 4.305099999999999899e-02 -1.358000000000000049e-03 -1.408300000000000003e-02 3.207600000000000035e-02 -7.818999999999999562e-03 -3.040700000000000000e-02 2.969704000000000121e+00 -1.722879999999999967e+00 -1.208884000000000070e+00 -3.191499999999999893e-02 -2.997000000000000011e-02 3.543999999999999841e-03 2.028100000000000042e-02 -1.829000000000000070e-02 -6.035999999999999699e-03 -9.249000000000000277e-03 -1.691000000000000142e-02 4.116199999999999720e-02 2.034899999999999903e-02 3.796299999999999675e-02 -1.408300000000000003e-02 9.270000000000000462e-03 3.168900000000000189e-02 -3.040400000000000047e-02 -7.205999999999999732e-03 3.433279000000000192e+00 -1.208884000000000070e+00 1.199999999999999895e-03 6.890000000000000508e-04 1.569999999999999944e-04 -2.990100000000000049e-02 -1.725600000000000050e-02 3.621842000000000006e+00 -2.966775999999999858e+00 -1.712871000000000032e+00 -1.174028999999999989e+00 -2.027690000000000048e-01 -1.170589999999999964e-01 4.067300000000000082e-02 -9.876200000000000256e-02 -5.702399999999999830e-02 2.102030000000000010e-01 5.789999999999999791e-04 -1.198820000000000024e-01 -8.435399999999999843e-02 -3.948900000000000327e-02 2.897100000000000022e-02 1.641199999999999951e-02 1.034209999999999990e-01 -6.055200000000000166e-02 8.348800000000000665e-02 -1.048369999999999996e-01 1.544929999999999914e-01 -1.360329999999999873e-01 1.502200000000000063e-02 2.239279999999999882e-01 5.937800000000000022e-02 2.060950000000000004e-01 -2.648000000000000180e-03 -1.258080000000000032e-01 -1.035250000000000059e-01 6.044100000000000167e-02 -8.437000000000000055e-02 5.342999999999999659e-03 -4.869099999999999817e-02 1.640700000000000144e-02 -7.159999999999999481e-04 1.198509999999999992e-01 8.350200000000000677e-02 -1.985490000000000033e-01 -1.146360000000000018e-01 -6.864000000000000309e-03 -6.115099999999999703e-02 -3.530400000000000205e-02 2.175600000000000034e-01 5.866799999999999793e-02 1.919089999999999963e-01 -1.055949999999999944e-01 -1.380400000000000030e-02 1.298070000000000057e-01 1.920640000000000125e-01 -2.017339999999999967e-01 2.106999999999999845e-02 -1.146029999999999965e-01 8.137099999999999889e-02 -1.680399999999999949e-01 -1.360290000000000110e-01 2.014489999999999892e-01 -9.895199999999999829e-02 5.937599999999999822e-02 1.007419999999999982e-01 1.798170000000000046e-01 -1.258100000000000052e-01 1.955310000000000104e-01 -4.514499999999999763e-02 -1.055900000000000033e-01 1.055080000000000046e-01 -7.687099999999999489e-02 1.920659999999999867e-01 -8.262100000000000000e-02 -1.852419999999999900e-01 -1.146019999999999955e-01 4.023299999999999793e-02 2.323100000000000165e-02 2.175500000000000003e-02 1.160000000000000007e-04 6.999999999999999387e-05 8.499999999999999526e-04 -5.833999999999999776e-03 -3.370000000000000166e-03 -5.365000000000000324e-02
