2.783197539419034001e+02 1.966070969151490714e-03 -6.026219686381240753e-02 1.966070969151490714e-03 2.783174731581352717e+02 -3.478814063761216657e-02 -6.026219686381240753e-02 -3.478814063761216657e-02 2.782668680472727942e+02
2.783643795095845235e+02 -1.833467261699726555e-02 -1.376249678406043543e-02 -1.833467261699726555e-02 2.783403835426840374e+02 9.172640456796702160e-03 -1.376249678406043543e-02 9.172640456796702160e-03 2.783354294681736860e+02
2.782976886849834273e+02 -5.321828792397469837e-02 7.696672790386932528e-02 -5.321828792397469837e-02 2.783591354749671609e+02 4.443815444123522251e-02 7.696672790386932528e-02 4.443815444123522251e-02 2.783302526194347024e+02
