-5.710448375600000190e+02
-5.711614905599999474e+02
-5.710474330700000110e+02
-5.710695682100000568e+02
-5.712163191399999960e+02
-5.691118288200000279e+02
-5.692172487599999613e+02
-5.690844190499999513e+02
-5.689081435699999929e+02
-5.690592427000000271e+02
-5.691778047300000480e+02
-5.692009201700000176e+02
-5.690972839400000112e+02
-5.690342354900000146e+02
-5.690724796099999594e+02
