-1.467300000000000028e-02 6.887799999999999478e-02 -1.675240000000000062e-01 8.113900000000000279e-02 -2.494899999999999896e-02 1.559329999999999883e-01 -1.711630000000000096e-01 1.558080000000000020e-01 1.596249999999999891e-01 -1.514520000000000033e-01 -1.134830000000000005e-01 -2.216930000000000012e-01 -4.136700000000000099e-02 -2.588219999999999965e-01 2.628869999999999818e-01 -6.649900000000000255e-02 -1.263099999999999987e-02 -2.624830000000000219e-01 -5.548199999999999660e-02 -2.500000000000000052e-04 1.716300000000000117e-02 -5.853999999999999829e-03 7.468400000000000039e-02 -1.665510000000000046e-01 6.312399999999999956e-02 3.341399999999999926e-02 1.703580000000000094e-01 4.251800000000000024e-02 6.015999999999999646e-03 7.575000000000000136e-03 -3.439969000000000054e+00 2.004767000000000188e+00 -2.676800000000000013e-02 -1.607499999999999901e-02 3.762499999999999872e-02 1.409099999999999936e-02 -3.321161000000000030e+00 -1.857428000000000079e+00 1.493865999999999916e+00 -3.313019999999999854e+00 1.893278000000000016e+00 -1.246339000000000086e+00 9.441800000000000193e-02 -3.508026000000000089e+00 -2.322600000000000012e-02 -3.180999999999999800e-03 -3.492049999999999876e+00 3.326199999999999990e-02 -3.665100000000000302e-02 -7.028700000000000225e-02 9.689499999999999780e-01 -2.881500000000000034e-02 -6.080599999999999894e-02 -9.786120000000000374e-01 3.937000000000000222e-02 -3.064100000000000157e-02 -1.030528000000000111e+00 3.284863999999999784e+00 1.861104000000000092e+00 1.267903999999999920e+00 -1.345499999999999995e-02 8.330300000000000205e-02 4.903000000000000240e-03 1.618999999999999996e-03 5.693800000000000250e-02 -3.674999999999999881e-03 3.005527999999999977e+00 1.718714000000000075e+00 -6.718799999999999772e-02 5.851000000000000298e-03 -9.457999999999999741e-02 5.988299999999999873e-02 3.312354000000000021e+00 1.858670000000000044e+00 1.188001000000000085e+00 2.463999999999999871e-02 3.839869000000000199e+00 -1.461065000000000058e+00 -4.587100000000000205e-02 6.125900000000000095e-02 2.877800000000000150e-02 -1.126500000000000071e-02 -3.483410000000000117e+00 -1.283600000000000019e-02 3.368840000000000057e+00 1.866643999999999970e+00 -1.455683000000000060e+00 3.305895000000000028e+00 -1.911605999999999916e+00 1.178805000000000103e+00 6.807999999999999816e-03 -4.121019000000000432e+00 -1.204999999999999908e-03 -5.776300000000000184e-02 5.813800000000000218e-02 -1.515999999999999986e-03 -2.883499999999999952e-02 3.601046999999999887e+00 -3.179300000000000181e-02 3.221600000000000158e-02 3.518175999999999970e+00 3.948999999999999733e-02 4.728099999999999664e-02 -3.579973999999999990e+00 -1.214999999999999934e-03 -3.122381999999999991e+00 1.821128999999999998e+00 1.184299999999999936e-02 -3.150043999999999844e+00 -1.660066999999999959e+00 6.849000000000000053e-03 3.118724999999999969e+00 -1.702112000000000069e+00 -6.088999999999999795e-03 3.219199999999999839e-02 3.629490999999999801e+00 -1.986999999999999877e-02 9.615000000000000283e-03 -1.311789999999999901e-01 2.078199999999999839e-02 -3.136563000000000212e+00 1.728858000000000006e+00 2.360000000000000119e-03 1.017399999999999971e-01 1.951000000000000043e-03 -2.166099999999999970e-02 3.329009000000000107e+00 -1.863388000000000044e+00 1.210148000000000001e+00 -3.291393999999999931e+00 -1.910004999999999953e+00 -1.210696999999999912e+00 -1.881100000000000133e-02 -1.267870000000000108e-01 -4.190000000000000148e-03 -3.465599999999999931e-02 -7.473999999999999741e-03 -6.210000000000000242e-04 4.872850000000000237e-01 -4.968000000000000194e-03 -3.635650000000000270e-01 -4.441620000000000013e-01 -1.024110000000000020e-01 4.573619999999999908e-01 -1.510000000000000112e-04 -6.481019999999999559e-01 4.129000000000000031e-02 -3.027340000000000031e-01 6.988140000000000462e-01 -2.531100000000000017e-02 6.749800000000000244e-02 -6.543579999999999952e-01 -4.557900000000000146e-02 -1.766500000000000015e-02 5.681610000000000271e-01 1.636200000000000154e-02 -5.292729999999999935e-01 -3.340000000000000087e-03 -2.050499999999999892e-02 -1.042239999999999972e-01 5.730799999999999783e-02 -2.134099999999999886e-02 -1.297619999999999885e-01 -1.747740000000000127e-01 3.084599999999999842e-02 3.592770000000000130e-01 -9.965000000000000246e-02 4.336860000000000159e-01 -9.198800000000000032e-02 -4.972460000000000213e-01 -4.625300000000000245e-02 2.792899999999999897e-02 -6.932499999999999774e-02 4.351700000000000013e-02 -1.171729999999999994e-01 1.396640000000000104e-01 2.490399999999999905e-02 1.103610000000000008e-01 2.333250000000000046e-01 4.427019999999999844e-01 2.442830000000000001e-01 -4.773199999999999665e-02 -1.917699999999999960e-02 8.616899999999999560e-02 2.313199999999999978e-01 -4.427340000000000164e-01 2.804220000000000046e-01 2.666769999999999974e-01 -5.219219999999999970e-01 -5.006300000000000333e-02 2.818120000000000069e-01 9.353529999999999900e-01 4.898290000000000144e-01 -9.766999999999999640e-03 5.377530000000000365e-01 -3.836140000000000105e-01 2.841460000000000097e-01 -9.141249999999999654e-01 1.044429999999999942e-01 -2.267929999999999946e-01 -1.859900000000000095e-02 2.086520000000000041e-01 4.508630000000000138e-01 -4.034360000000000168e-01 1.461739999999999984e-01 -2.778579999999999939e-01 5.016000000000000458e-01 1.811989999999999990e-01 1.161810000000000065e-01 -5.428499999999999992e-02 -3.043899999999999939e-01 -2.523590000000000000e-01 -5.049670000000000547e-01 -4.966899999999999787e-02 -2.183759999999999868e-01 5.599599999999999717e-02
-3.044780000000000264e-01 -5.021799999999999875e-02 4.940400000000000347e-02 -1.176630000000000037e-01 6.080200000000000188e-02 3.863559999999999772e-01 -1.375349999999999906e-01 -5.448200000000000265e-02 -6.075699999999999851e-02 -1.155989999999999934e-01 -9.516900000000000359e-02 -3.981759999999999744e-01 1.253930000000000045e-01 -3.276450000000000196e-01 1.661660000000000081e-01 -1.116179999999999950e-01 2.046479999999999966e-01 -1.476439999999999975e-01 7.029999999999999791e-03 3.348999999999999980e-03 -2.384700000000000014e-02 1.400560000000000138e-01 1.025749999999999995e-01 -3.796180000000000110e-01 3.467020000000000102e-01 5.254999999999999949e-02 1.544999999999999984e-01 3.820799999999999891e-02 2.906119999999999814e-01 2.312460000000000071e-01 -3.385326000000000057e+00 1.994923999999999920e+00 -5.580500000000000044e-02 7.574899999999999689e-02 -3.962499000000000215e+00 5.624099999999999933e-02 -3.321413000000000171e+00 -1.786380999999999997e+00 1.462576000000000098e+00 7.719800000000000273e-02 1.085030000000000022e-01 -9.613909999999999956e-01 1.097960000000000047e-01 -3.594298000000000215e+00 6.146000000000000421e-03 -2.957069999999999865e+00 1.790165000000000006e+00 -5.419000000000000206e-03 3.083947000000000216e+00 1.752744000000000080e+00 2.844700000000000006e-02 -2.352500000000000077e-02 -2.451899999999999913e-02 -3.780700000000000033e-02 2.683100000000000068e-02 -3.160099999999999715e-02 6.354000000000000273e-03 -5.671400000000000052e-02 3.777599999999999708e-02 2.565000000000000006e-03 -6.792900000000000327e-02 -1.730999999999999900e-03 -1.051425000000000054e+00 -6.764599999999999780e-02 -6.979799999999999893e-02 1.027323999999999904e+00 -1.189069999999999988e-01 3.806703000000000170e+00 1.449740000000000029e+00 -1.025039999999999979e-01 1.820799999999999849e-02 -9.571809999999999485e-01 3.082148000000000110e+00 -1.766777000000000042e+00 -3.467900000000000149e-02 -6.851000000000000145e-02 5.218000000000000416e-03 3.336999999999999689e-02 3.950399999999999745e-02 -6.433099999999999929e-02 1.013981000000000021e+00 3.266509000000000107e+00 1.794893000000000072e+00 -1.241090000000000027e+00 5.002899999999999708e-02 -3.860000000000000236e-02 -1.730563000000000073e+00 3.362527000000000044e+00 -1.936679000000000039e+00 1.173343000000000025e+00 3.242484999999999840e+00 -1.964285000000000059e+00 -1.227572000000000108e+00 -1.407519999999999882e-01 -1.881899999999999892e-02 9.637820000000000276e-01 -3.385356999999999950e+00 1.948013999999999912e+00 1.463391000000000108e+00 1.672200000000000075e-02 3.827319000000000138e+00 -1.191457999999999906e+00 -3.091855999999999938e+00 -1.736809000000000047e+00 4.223000000000000191e-03 -3.056131000000000153e+00 -1.749473999999999974e+00 2.263999999999999953e-03 -2.991783999999999999e+00 -1.934611999999999998e+00 4.838400000000000339e-02 1.149339999999999945e-01 3.629878000000000160e+00 -3.296500000000000125e-02 -5.202099999999999780e-02 1.195129999999999942e-01 -1.946600000000000066e-02 3.139393000000000100e+00 -1.780315000000000092e+00 3.076399999999999968e-02 3.246774999999999967e+00 -1.878530999999999951e+00 -1.189864999999999950e+00 -7.225299999999999778e-02 1.085689999999999988e-01 9.339089999999999892e-01 -4.049599999999999728e-02 3.610948000000000047e+00 2.633699999999999930e-02 5.337700000000000083e-02 -1.211030000000000023e-01 -2.841799999999999882e-02 3.177970000000000184e+00 1.776453000000000060e+00 1.392900000000000041e-02 -3.161738000000000159e+00 -1.873170999999999919e+00 -3.831999999999999903e-03 2.436889999999999890e-01 -4.422499999999999765e-01 -8.028279999999999861e-01 -1.921720000000000095e-01 -6.030499999999999750e-02 8.817089999999999650e-01 1.786500000000000032e-01 -1.262429999999999941e-01 -4.080320000000000058e-01 -2.724099999999999855e-01 -2.420589999999999964e-01 1.135039999999999938e-01 -6.773540000000000116e-01 4.408980000000000121e-01 3.580889999999999906e-01 -1.314359999999999973e-01 -1.603050000000000030e-01 -1.151340000000000002e-01 4.160599999999999854e-01 -1.023420000000000024e-01 -3.987229999999999941e-01 -7.391379999999999617e-01 -5.830199999999999966e-02 -5.669099999999999834e-02 4.534940000000000082e-01 9.065000000000000141e-03 3.971450000000000258e-01 -6.307880000000000154e-01 -6.537450000000000205e-01 5.228300000000000308e-02 -3.225759999999999739e-01 1.212899999999999950e-01 1.954000000000000008e-03 -5.505499999999999838e-01 1.506879999999999886e-01 -1.883400000000000005e-02 -1.625089999999999868e-01 1.749209999999999932e-01 -1.245199999999999953e-02 -4.002990000000000159e-01 2.426250000000000073e-01 9.896000000000000282e-03 2.425000000000000072e-02 1.547100000000000038e-02 2.752500000000000085e-02 6.647420000000000551e-01 -3.969809999999999728e-01 -4.902340000000000031e-01 2.048550000000000093e-01 -1.133949999999999958e-01 5.122079999999999966e-01 -4.472799999999999693e-02 1.777549999999999963e-01 8.634690000000000420e-01 3.779040000000000177e-01 -2.197419999999999929e-01 -3.874619999999999731e-01 7.233070000000000332e-01 -1.846129999999999993e-01 -9.121609999999999996e-01 1.635699999999999932e-01 3.310879999999999934e-01 3.947510000000000185e-01 3.707590000000000052e-01 -2.348349999999999882e-01 9.388250000000000206e-01 2.213350000000000040e-01 4.804129999999999789e-01 -4.005090000000000039e-01 -2.687300000000000105e-02 1.970359999999999889e-01 4.474620000000000264e-01 7.699799999999999700e-02 2.849389999999999978e-01 -5.057279999999999553e-01 1.567610000000000114e-01 1.864089999999999914e-01 -4.457960000000000256e-01
-1.614619999999999944e-01 1.640310000000000101e-01 -1.541720000000000035e-01 4.365999999999999881e-01 -1.276700000000000057e-01 2.117580000000000018e-01 -1.013079999999999953e-01 7.640900000000000469e-02 1.386600000000000055e-01 2.674989999999999868e-01 -7.512000000000000621e-02 -3.440639999999999810e-01 1.074790000000000051e-01 -8.855799999999999783e-02 1.122899999999999940e-02 2.353659999999999919e-01 1.207699999999999919e-02 1.310550000000000048e-01 -3.088000000000000120e-02 -9.860999999999999974e-03 -3.370499999999999885e-02 -2.894909999999999983e-01 2.483559999999999934e-01 8.739999999999999505e-03 1.944909999999999972e-01 -2.226619999999999988e-01 -9.166000000000000536e-03 1.320000000000000101e-04 -1.316839999999999955e-01 -2.289999999999999935e-03 -3.423297999999999952e+00 1.969818000000000069e+00 -5.412499999999999950e-02 5.306099999999999706e-02 2.843199999999999894e-02 4.800200000000000300e-02 3.213181000000000065e+00 -1.827161000000000035e+00 1.497773000000000021e+00 -1.121639999999999998e-01 8.014200000000000490e-02 -9.824950000000000072e-01 7.878200000000000480e-02 -3.239100000000000312e-02 -1.252000000000000075e-03 6.336400000000000365e-02 -9.311999999999999444e-02 6.019999999999999961e-04 4.986299999999999760e-02 -5.192800000000000193e-02 6.823099999999999998e-02 -6.034000000000000301e-03 -1.298900000000000055e-02 -6.553299999999999403e-02 -3.047229999999999883e+00 1.765058000000000016e+00 1.464700000000000030e-02 3.712800000000000128e-02 -6.277599999999999847e-02 -1.740999999999999926e-03 3.253077999999999914e+00 -1.861753999999999909e+00 -1.492798000000000069e+00 3.236320000000000086e+00 1.930304999999999938e+00 1.218512999999999957e+00 2.944805999999999813e+00 -1.738204000000000082e+00 -1.055000000000000035e-02 -1.260169999999999901e-01 -3.501371999999999929e+00 2.634000000000000057e-03 5.258700000000000180e-02 -1.264999999999999979e-02 -1.017822999999999922e+00 9.230700000000000016e-02 1.526600000000000006e-02 9.995399999999999840e-01 -3.292502999999999957e+00 1.880357999999999974e+00 1.248463000000000100e+00 -3.298747000000000096e+00 1.870446999999999971e+00 -1.232386999999999899e+00 3.311723000000000194e+00 1.858600999999999948e+00 -1.466644999999999976e+00 3.388716000000000061e+00 -1.961543999999999954e+00 1.211030999999999969e+00 3.079547999999999952e+00 -1.786348000000000047e+00 1.931799999999999837e-02 -3.258628999999999998e+00 -1.771538000000000057e+00 -1.697299999999999850e-02 -3.080109999999999904e+00 1.801150000000000029e+00 3.314999999999999804e-03 1.114030000000000020e-01 3.627288000000000068e+00 2.049999999999999956e-04 -3.041386000000000145e+00 -1.821493999999999946e+00 1.927200000000000094e-02 -3.100886000000000031e+00 -1.832381999999999955e+00 -1.217000000000000026e-02 -3.280578000000000216e+00 -1.952434000000000003e+00 -1.216960000000000042e+00 3.000000000000000062e-03 3.835773000000000099e+00 1.216757000000000088e+00 -6.267200000000000548e-02 1.464810000000000001e-01 -1.221299999999999990e-02 3.053554000000000102e+00 -1.761810000000000098e+00 8.498000000000000345e-03 -1.746530000000000027e-01 -2.503899999999999876e-02 2.454000000000000018e-03 -6.926499999999999324e-02 3.684881999999999991e+00 5.282000000000000237e-03 3.864800000000000180e-02 3.581291999999999920e+00 1.472500000000000024e-02 3.170927999999999969e+00 -1.908916999999999975e+00 -2.167699999999999835e-02 3.507010000000000183e+00 -1.966747999999999941e+00 2.256999999999999978e-02 -3.524430999999999869e+00 -2.021371999999999947e+00 -2.898900000000000088e-02 7.854050000000000198e-01 -2.412320000000000020e-01 -4.386030000000000206e-01 1.432579999999999965e-01 -4.823399999999999910e-01 1.689200000000000076e-02 4.063740000000000130e-01 -2.040180000000000049e-01 8.167119999999999935e-01 3.568500000000000144e-02 -4.207139999999999769e-01 -1.887899999999999995e-02 1.648399999999999865e-02 3.007900000000000157e-02 4.170299999999999702e-02 -6.810580000000000522e-01 8.171950000000000047e-01 4.561060000000000114e-01 -4.546999999999999827e-03 4.845499999999999807e-02 -3.950399999999999745e-02 -5.181369999999999587e-01 8.510039999999999827e-01 -4.615139999999999798e-01 -1.908209999999999906e-01 -1.092849999999999933e-01 5.890800000000000203e-02 -1.008531999999999984e+00 -1.718490000000000018e-01 -5.705000000000000002e-03 -2.869599999999999929e-02 -1.523000000000000048e-03 -6.284800000000000109e-02 -7.391710000000000225e-01 -4.302520000000000233e-01 9.962000000000000369e-03 -6.374849999999999683e-01 2.379040000000000044e-01 -4.706949999999999745e-01 -3.511589999999999989e-01 2.116359999999999908e-01 4.726489999999999858e-01 -1.239009999999999972e-01 2.526419999999999777e-01 -1.313500000000000084e-02 6.853010000000000490e-01 -2.648789999999999756e-01 -3.434249999999999803e-01 4.665860000000000007e-01 -2.704420000000000157e-01 -4.999419999999999975e-01 5.287539999999999463e-01 -3.978899999999999798e-02 5.092989999999999462e-01 6.828189999999999538e-01 -5.948020000000000529e-01 -4.151139999999999830e-01 1.425319999999999920e-01 3.081349999999999922e-01 -4.864029999999999743e-01 3.495559999999999778e-01 -6.548709999999999809e-01 4.188779999999999726e-01 -5.203100000000000086e-02 1.821069999999999911e-01 4.943239999999999856e-01 1.579270000000000118e-01 6.939599999999999935e-02 4.217499999999999721e-02 3.037300000000000069e-02 3.287169999999999814e-01 -2.268999999999999836e-02 1.164520000000000000e-01 2.543349999999999778e-01 1.238999999999999997e-02 -7.107989999999999586e-01 3.777530000000000054e-01 -1.708499999999999949e-02
-1.262610000000000121e-01 -6.590300000000000324e-02 3.291999999999999788e-02 -5.439999999999999957e-04 -4.418000000000000052e-03 -5.904999999999999659e-03 -1.279980000000000007e-01 -6.636899999999999744e-02 -3.295800000000000118e-02 -6.887899999999999578e-02 -3.090399999999999814e-01 1.890090000000000103e-01 2.442300000000000026e-02 1.298660000000000092e-01 9.157999999999999474e-03 2.006900000000000003e-02 6.412000000000000165e-03 1.540900000000000082e-02 1.999499999999999889e-02 6.623000000000000415e-03 -1.593999999999999931e-02 2.272990000000000010e-01 2.033649999999999902e-01 1.904170000000000029e-01 -4.070000000000000267e-04 -1.111000000000000008e-03 -1.662129999999999996e-01 2.075249999999999873e-01 -2.352699999999999930e-02 -1.795170000000000099e-01 -3.480932999999999833e+00 2.027140999999999860e+00 -3.853999999999999787e-03 -4.091800000000000298e-02 -4.012376999999999860e+00 4.776999999999999996e-03 -3.108649000000000218e+00 -1.770210999999999979e+00 -1.514000000000000068e-02 1.156549999999999939e-01 1.088399999999999958e-02 1.430299999999999974e-02 5.954199999999999771e-02 -3.599679000000000073e+00 -8.552999999999999839e-03 -3.060491999999999990e+00 1.768046999999999924e+00 7.193999999999999874e-03 3.085869999999999891e+00 1.782332000000000027e+00 -1.076399999999999926e-02 -1.968900000000000164e-02 -3.121799999999999922e-02 1.307000000000000002e-02 -3.131500000000000256e-02 -6.389799999999999647e-02 -1.427800000000000076e-02 3.033973000000000031e+00 1.820108999999999977e+00 1.070300000000000071e-02 -3.101299999999999890e-02 3.359000000000000007e-03 1.764500000000000096e-02 -6.431499999999999717e-02 -4.256700000000000067e-02 -1.721999999999999920e-02 -1.551100000000000048e-02 3.590450000000000141e+00 -1.506500000000000027e-02 1.801000000000000170e-02 1.936099999999999974e-02 1.431699999999999987e-02 3.356247999999999898e+00 -1.931788999999999978e+00 1.479019000000000084e+00 -3.270586999999999911e+00 1.940045999999999937e+00 -1.211152999999999924e+00 -7.893999999999999975e-03 2.205000000000000016e-02 -1.184600000000000063e-02 3.096744999999999859e+00 -1.806146000000000029e+00 8.852000000000000493e-03 3.408271000000000051e+00 -1.960652000000000061e+00 -1.151551999999999909e+00 3.349286000000000207e+00 -1.926609000000000016e+00 1.131496000000000057e+00 -3.303673999999999999e+00 -1.882071999999999967e+00 -1.229745000000000088e+00 -7.690800000000000414e-02 -8.952999999999999153e-03 9.785439999999999694e-01 8.354000000000000314e-03 3.918022000000000116e+00 1.180897000000000086e+00 5.978999999999999940e-03 3.846325000000000216e+00 -1.166579999999999950e+00 -3.121358999999999995e+00 -1.810132000000000074e+00 -2.253600000000000048e-02 -3.064458000000000126e+00 -1.776529999999999943e+00 2.142900000000000013e-02 2.597199999999999856e-02 3.658246999999999804e+00 4.094300000000000023e-02 2.713300000000000087e-02 3.611082000000000125e+00 -4.272000000000000103e-02 3.172104000000000035e+00 -1.809190000000000076e+00 -2.728799999999999976e-02 3.131456000000000017e+00 -1.785525000000000029e+00 3.071600000000000025e-02 -4.750399999999999762e-02 3.789484999999999992e+00 -1.211120999999999892e+00 -5.162499999999999728e-02 5.927400000000000030e-02 9.490189999999999459e-01 3.269058999999999937e+00 -1.922924999999999995e+00 1.229292999999999969e+00 4.016999999999999738e-02 -5.543499999999999817e-02 -9.689250000000000362e-01 -3.174427000000000110e+00 -1.837158999999999986e+00 -4.269000000000000225e-03 -3.133900000000000130e+00 -1.814794000000000018e+00 3.413999999999999934e-03 5.765069999999999917e-01 -6.390609999999999902e-01 1.647900000000000059e-02 -3.985940000000000039e-01 -1.928739999999999899e-01 -9.848489999999999744e-01 -2.092239999999999933e-01 -3.382600000000000190e-02 9.984469999999999734e-01 -6.403969999999999940e-01 -1.673099999999999934e-02 -4.415069999999999828e-01 -3.516619999999999746e-01 -2.550410000000000177e-01 8.863999999999999657e-02 -3.137179999999999969e-01 6.013640000000000096e-01 -1.583599999999999938e-02 -1.172860000000000014e-01 -1.714630000000000043e-01 -9.597700000000000675e-02 4.110900000000000110e-01 2.304140000000000077e-01 -3.992539999999999978e-01 -6.952270000000000394e-01 -4.443699999999999734e-02 -8.415000000000000605e-03 4.580219999999999847e-01 -6.439000000000000279e-03 4.026239999999999819e-01 -4.080860000000000043e-01 -5.622779999999999445e-01 9.560000000000000789e-03 3.957620000000000027e-01 2.471810000000000118e-01 4.716489999999999849e-01 -1.963600000000000068e-01 7.607939999999999703e-01 -2.700200000000000169e-02 2.117989999999999873e-01 4.053050000000000264e-01 -4.726759999999999851e-01 1.829189999999999983e-01 1.033768999999999938e+00 2.993099999999999927e-02 1.029514000000000040e+00 -5.872540000000000537e-01 -3.180000000000000188e-02 5.749859999999999971e-01 -3.011530000000000040e-01 2.451300000000000007e-02 -3.896899999999999670e-02 4.199660000000000060e-01 -9.596029999999999838e-01 -8.123400000000000065e-02 1.756129999999999913e-01 9.718120000000000092e-01 -2.308560000000000056e-01 4.719189999999999774e-01 -4.474750000000000116e-01 4.733060000000000045e-01 -2.759489999999999998e-01 4.439549999999999885e-01 6.807999999999999816e-03 -1.361700000000000063e-02 3.973949999999999982e-01 3.271620000000000084e-01 -2.404719999999999913e-01 9.708869999999999445e-01 -7.572680000000000522e-01 -2.037289999999999934e-01 -2.712699999999999834e-02 9.203200000000000269e-02 -1.539520000000000055e-01 -9.830039999999999889e-01 -5.749049999999999994e-01 -5.422989999999999755e-01 2.923299999999999857e-02
1.766590000000000105e-01 2.557090000000000196e-01 3.752199999999999980e-02 3.640600000000000086e-02 1.878410000000000080e-01 3.371739999999999737e-01 2.294760000000000133e-01 1.114170000000000021e-01 -5.691389999999999505e-01 9.338200000000000667e-02 -1.355429999999999968e-01 1.412839999999999929e-01 1.890189999999999926e-01 -2.409000000000000030e-02 -1.500019999999999964e-01 -1.136979999999999935e-01 -5.542899999999999910e-02 -1.670679999999999943e-01 -1.409509999999999930e-01 -9.772899999999999643e-02 2.174800000000000066e-01 2.070190000000000086e-01 2.197439999999999949e-01 -2.383689999999999976e-01 9.783600000000000629e-02 -5.365500000000000130e-02 3.411759999999999793e-01 -2.491000000000000159e-03 -2.172299999999999925e-02 3.464199999999999918e-02 -3.290833000000000119e+00 1.893418999999999963e+00 1.189786000000000010e+00 3.333626000000000200e+00 1.879278000000000004e+00 -1.206131000000000064e+00 3.198700000000000154e-02 -1.190300000000000039e-02 1.751071999999999962e+00 -1.123360000000000053e-01 3.570899999999999769e-02 -9.699389999999999956e-01 2.665899999999999867e-02 -3.758948000000000178e+00 1.203345000000000109e+00 -1.336799999999999967e-02 -7.075599999999999945e-02 -9.587930000000000064e-01 3.181786999999999921e+00 1.768585999999999991e+00 -3.296000000000000318e-02 -3.140054999999999819e+00 1.747643999999999975e+00 1.468599999999999940e-02 -3.144454999999999778e+00 1.773751999999999995e+00 -1.812000000000000026e-03 7.699499999999999400e-02 -3.610599999999999810e+00 4.592999999999999861e-03 -1.449709999999999888e-01 -3.604499000000000120e+00 -4.861100000000000143e-02 3.106745000000000090e+00 1.881305999999999923e+00 5.791400000000000020e-02 -4.155600000000000266e-02 3.642714999999999925e+00 4.363999999999999824e-03 -2.755600000000000063e-02 -3.671593000000000107e+00 -1.330699999999999938e-02 3.308729000000000031e+00 -1.985025000000000039e+00 -1.496596000000000037e+00 5.227400000000000102e-02 4.600400000000000322e-02 9.697909999999999586e-01 8.674099999999999866e-02 5.705000000000000002e-03 5.950999999999999693e-03 -3.133229000000000042e+00 1.798040000000000083e+00 -7.577999999999999667e-03 3.262861000000000011e+00 1.816618000000000066e+00 -1.455068999999999946e+00 4.713799999999999935e-02 -6.051200000000000329e-02 9.521929999999999561e-01 3.215120999999999896e+00 1.960164999999999935e+00 -1.431240000000000068e+00 -3.287638999999999978e+00 -1.839037000000000033e+00 1.158082999999999974e+00 3.044725999999999821e+00 1.716860999999999970e+00 -2.058499999999999913e-02 -6.662200000000000066e-02 -1.634899999999999895e-02 3.729799999999999782e-02 -3.244439999999999991e+00 -1.890552999999999928e+00 1.246928000000000036e+00 -2.455299999999999844e-02 -1.825200000000000086e-02 -9.891940000000000177e-01 -3.193109000000000197e+00 -1.837604999999999933e+00 -1.209745000000000070e+00 3.668099999999999833e-02 8.919199999999999351e-02 9.711560000000000192e-01 -3.085942999999999881e+00 -1.771630000000000038e+00 -8.434999999999999790e-03 1.001230000000000037e-01 -1.741200000000000039e-02 6.635000000000000273e-03 -2.768199999999999827e-02 -5.406000000000000215e-03 -1.015190000000000037e+00 -4.213900000000000284e-02 3.751046000000000102e+00 1.242218000000000044e+00 -2.059800000000000172e-02 6.478599999999999637e-02 -2.663000000000000003e-03 3.027582999999999913e+00 -1.711713999999999958e+00 -6.316000000000000433e-03 3.554100000000000315e-02 -1.958100000000000118e-02 1.064551999999999943e+00 -3.001600000000000101e-02 -6.888299999999999979e-02 -1.046931999999999974e+00 6.466000000000000393e-03 4.345680000000000098e-01 -6.444099999999999828e-02 5.966310000000000224e-01 1.687549999999999883e-01 -8.008809999999999540e-01 -1.758319999999999883e-01 -1.673600000000000088e-01 1.255222999999999978e+00 2.840099999999999916e-02 7.199999999999999803e-03 -3.549680000000000057e-01 8.784799999999999554e-02 6.862899999999999556e-02 8.884199999999999875e-01 -2.223350000000000048e-01 -4.859289999999999998e-01 3.991790000000000060e-01 4.397329999999999850e-01 4.489060000000000272e-01 -8.839590000000000503e-01 -2.781730000000000036e-01 2.435910000000000020e-01 9.174799999999999622e-02 -4.694439999999999724e-01 1.568489999999999884e-01 4.266559999999999797e-01 -8.158999999999999586e-02 6.696950000000000403e-01 -9.626700000000000534e-02 -7.035320000000000462e-01 -3.752800000000000025e-01 4.566400000000000320e-02 -1.874470000000000025e-01 -3.398309999999999942e-01 -4.287099999999999939e-02 -1.610219999999999985e-01 -3.743409999999999793e-01 -4.588510000000000089e-01 6.265300000000000036e-02 -4.017870000000000053e-01 2.345699999999999869e-02 -1.188310000000000061e-01 -4.697290000000000076e-01 4.959729999999999972e-01 3.710089999999999777e-01 -2.522039999999999837e-01 -1.031499999999999952e-02 -4.017249999999999988e-01 3.769100000000000228e-02 -4.873199999999999754e-01 1.385679999999999967e-01 8.667099999999999804e-02 -4.625159999999999827e-01 8.395400000000000085e-02 2.574009999999999909e-01 4.598050000000000193e-01 -2.481599999999999917e-01 3.165390000000000148e-01 5.115750000000000020e-01 4.757819999999999827e-01 -1.328409999999999869e-01 -8.228090000000000126e-01 2.962440000000000073e-01 -1.818629999999999969e-01 -5.500559999999999894e-01 1.508500000000000119e-01 -3.743489999999999873e-01 5.534540000000000015e-01 -2.179810000000000081e-01 2.846259999999999901e-01 4.753910000000000080e-01 1.552500000000000061e-02 -1.351600000000000024e-02 -4.339200000000000002e-02 -1.644650000000000001e-01 1.007989999999999997e-01 -4.920660000000000034e-01