6.296167836000001294e+00 1.740596178965243616e-23 0.000000000000000000e+00 3.148084137985224018e+00 5.452641159499996171e+00 0.000000000000000000e+00 3.148084006010210878e+00 1.817547113198483277e+00 5.140799386999999498e+00
6.430027185000000145e+00 0.000000000000000000e+00 0.000000000000000000e+00 3.291245251999999955e+00 5.311782371999999697e+00 0.000000000000000000e+00 3.180906423999999788e+00 1.698211447000000041e+00 5.034562712999999690e+00
6.416871012999999735e+00 0.000000000000000000e+00 0.000000000000000000e+00 3.262864834999999797e+00 5.571330124000000161e+00 0.000000000000000000e+00 3.232493129999999937e+00 1.984901346000000011e+00 5.079412750999999560e+00
6.330915842999999654e+00 0.000000000000000000e+00 0.000000000000000000e+00 3.207104161999999814e+00 5.367232688999999723e+00 0.000000000000000000e+00 3.061344399999999855e+00 1.727236011000000016e+00 5.244093213000000198e+00
6.433977078999999932e+00 0.000000000000000000e+00 0.000000000000000000e+00 3.113661346000000218e+00 5.495620261000000006e+00 0.000000000000000000e+00 3.232694568999999962e+00 1.777293432000000006e+00 5.078981053999999773e+00
6.355149262000000299e+00 0.000000000000000000e+00 0.000000000000000000e+00 3.136190394999999853e+00 5.381312795000000371e+00 0.000000000000000000e+00 3.079273911000000030e+00 1.891031385000000009e+00 5.207332913000000119e+00
6.112275338999999974e+00 0.000000000000000000e+00 0.000000000000000000e+00 3.211033122999999989e+00 5.362582355999999884e+00 0.000000000000000000e+00 3.085357863000000034e+00 1.670154611000000067e+00 5.208646691000000217e+00
6.265859010999999867e+00 0.000000000000000000e+00 0.000000000000000000e+00 3.122432340000000028e+00 5.575801549000000357e+00 0.000000000000000000e+00 3.060853904000000014e+00 1.843537446000000024e+00 5.024461761000000415e+00
6.154752414999999921e+00 0.000000000000000000e+00 0.000000000000000000e+00 3.209275265000000044e+00 5.302991890999999569e+00 0.000000000000000000e+00 3.050292325000000027e+00 1.736808350000000001e+00 5.005217730000000032e+00
6.396228686999999802e+00 0.000000000000000000e+00 0.000000000000000000e+00 3.099973707999999828e+00 5.440539114999999981e+00 0.000000000000000000e+00 3.254110689000000001e+00 1.697472424999999951e+00 5.118393587999999994e+00
6.216175153000000009e+00 0.000000000000000000e+00 0.000000000000000000e+00 3.228565602000000201e+00 5.517991773000000322e+00 0.000000000000000000e+00 3.049414076000000140e+00 1.831543656000000020e+00 5.109387686999999900e+00
6.359765491000000992e+00 1.644469353072922447e-23 0.000000000000000000e+00 3.179882968717274938e+00 5.507718342499996034e+00 -6.617444900424221399e-24 3.179882834587561824e+00 1.835906175141292396e+00 5.192726652666665998e+00
6.430011121999999801e+00 0.000000000000000000e+00 0.000000000000000000e+00 3.084494390999999780e+00 5.576192619000000406e+00 0.000000000000000000e+00 3.146757973999999791e+00 1.775193180999999898e+00 5.128839549000000275e+00
6.515038836999999639e+00 0.000000000000000000e+00 0.000000000000000000e+00 3.281713265000000046e+00 5.620283197000000008e+00 0.000000000000000000e+00 3.166029657000000164e+00 1.771870320999999970e+00 5.324742644999999719e+00
6.292519959999999912e+00 0.000000000000000000e+00 0.000000000000000000e+00 3.065416134999999986e+00 5.664734708000000118e+00 0.000000000000000000e+00 2.969572198999999912e+00 1.886588839999999934e+00 5.209653856000000083e+00
6.538917394000000272e+00 0.000000000000000000e+00 0.000000000000000000e+00 3.378053309999999865e+00 5.453042420000000057e+00 0.000000000000000000e+00 3.318000174999999885e+00 1.691007528000000093e+00 5.062586128000000407e+00
6.172482646999999822e+00 0.000000000000000000e+00 0.000000000000000000e+00 2.966430606999999942e+00 5.542137320000000145e+00 0.000000000000000000e+00 3.059664885000000112e+00 1.806528429000000102e+00 5.188481638999999923e+00
6.424435605000000216e+00 0.000000000000000000e+00 0.000000000000000000e+00 3.331220293999999971e+00 5.658429203999999935e+00 0.000000000000000000e+00 3.236272626999999957e+00 1.794190009000000030e+00 5.084078235999999862e+00
6.315103679999999997e+00 0.000000000000000000e+00 0.000000000000000000e+00 3.287740419999999997e+00 5.447631355999999592e+00 0.000000000000000000e+00 3.094991385000000150e+00 1.711610368999999965e+00 5.208229756999999793e+00
6.185720767000000286e+00 0.000000000000000000e+00 0.000000000000000000e+00 3.238416840000000185e+00 5.550906712999999826e+00 0.000000000000000000e+00 3.206158056000000034e+00 1.847562750000000031e+00 5.120352856000000230e+00
6.322417373000000396e+00 0.000000000000000000e+00 0.000000000000000000e+00 3.125877201999999855e+00 5.556846779999999875e+00 0.000000000000000000e+00 3.020194560000000195e+00 1.729572627999999890e+00 5.192248858000000133e+00
6.522044793000000062e+00 0.000000000000000000e+00 0.000000000000000000e+00 3.144154848999999974e+00 5.585929532999999836e+00 0.000000000000000000e+00 3.142938752000000058e+00 1.965786660000000019e+00 5.037637029999999960e+00
6.423363146000000690e+00 2.363752705623589426e-23 1.654361225106055350e-24 3.211681798583299940e+00 5.562795525999996826e+00 6.617444900424221399e-24 3.211681662876236576e+00 1.854265236641292391e+00 5.244653919666665942e+00
6.474098728999999608e+00 0.000000000000000000e+00 0.000000000000000000e+00 3.207809495999999871e+00 5.655992735999999965e+00 0.000000000000000000e+00 3.370630938000000132e+00 2.024051382000000121e+00 5.153151903999999561e+00
6.518290559999999623e+00 0.000000000000000000e+00 0.000000000000000000e+00 3.384294235000000040e+00 5.581001590999999706e+00 0.000000000000000000e+00 3.164274684000000004e+00 1.891692233999999972e+00 5.317341878999999771e+00
6.605085134000000302e+00 0.000000000000000000e+00 0.000000000000000000e+00 3.299901515999999813e+00 5.716753494999999852e+00 0.000000000000000000e+00 3.324407252999999951e+00 1.961544087000000047e+00 5.188036503000000188e+00
6.354014908999999989e+00 0.000000000000000000e+00 0.000000000000000000e+00 3.074761379999999988e+00 5.552825824000000132e+00 0.000000000000000000e+00 3.297939899999999813e+00 1.835322630999999927e+00 5.160767523999999717e+00
6.519994491000000281e+00 0.000000000000000000e+00 0.000000000000000000e+00 3.366417772000000141e+00 5.653084716000000398e+00 0.000000000000000000e+00 3.450402242000000008e+00 1.954138123999999976e+00 5.383287654000000089e+00
6.502258162000000397e+00 0.000000000000000000e+00 0.000000000000000000e+00 3.149537190999999847e+00 5.527925699999999942e+00 0.000000000000000000e+00 3.361474745000000208e+00 1.954703953000000105e+00 5.354788512999999917e+00
6.390330285000000110e+00 0.000000000000000000e+00 0.000000000000000000e+00 3.223281894999999952e+00 5.577362854000000425e+00 0.000000000000000000e+00 3.198337915000000198e+00 1.720460493999999896e+00 5.371166305000000030e+00
6.493183482000000062e+00 0.000000000000000000e+00 0.000000000000000000e+00 3.179855826999999913e+00 5.418678603000000038e+00 0.000000000000000000e+00 3.297113571000000132e+00 1.857613951000000041e+00 5.337908821000000081e+00
6.578826654000000218e+00 0.000000000000000000e+00 0.000000000000000000e+00 3.428334792999999880e+00 5.477862730000000013e+00 0.000000000000000000e+00 3.271699894000000164e+00 1.850038086000000082e+00 5.323441547999999912e+00
6.549882933000000129e+00 0.000000000000000000e+00 0.000000000000000000e+00 3.297695297999999831e+00 5.596272750999999879e+00 0.000000000000000000e+00 3.169188380000000027e+00 1.879506490999999890e+00 5.146672780000000280e+00
6.817554227000038658e+00 -1.792769101839036990e-22 -1.078286223331337547e-22 3.408778049653708564e+00 5.904174567999951329e+00 2.343844519511755803e-23 3.408778178289475491e+00 1.968058670887596007e+00 5.566508977333279873e+00
6.923821703999999855e+00 0.000000000000000000e+00 0.000000000000000000e+00 3.458484899000000112e+00 6.075248917999999776e+00 0.000000000000000000e+00 3.415183371999999995e+00 2.079753218000000015e+00 5.476092033999999664e+00
6.875095138999999911e+00 0.000000000000000000e+00 0.000000000000000000e+00 3.444699024000000165e+00 5.884627251999999586e+00 0.000000000000000000e+00 3.317407859999999875e+00 1.967431645000000007e+00 5.610680194000000398e+00
6.878682630000000131e+00 0.000000000000000000e+00 0.000000000000000000e+00 3.379753192999999989e+00 5.784760666999999579e+00 0.000000000000000000e+00 3.563700771999999795e+00 1.985545348000000043e+00 5.585378321000000312e+00
6.876958534999999983e+00 0.000000000000000000e+00 0.000000000000000000e+00 3.535485007000000124e+00 5.975681349000000253e+00 0.000000000000000000e+00 3.358073011000000108e+00 2.005242006000000021e+00 5.421980970999999982e+00
6.839257244999999763e+00 0.000000000000000000e+00 0.000000000000000000e+00 3.403636630999999912e+00 5.795190951999999562e+00 0.000000000000000000e+00 3.246869621000000095e+00 2.028275655999999927e+00 5.708845164000000416e+00
6.915456305000000192e+00 0.000000000000000000e+00 0.000000000000000000e+00 3.583374507999999903e+00 5.962947749999999658e+00 0.000000000000000000e+00 3.483207495999999903e+00 2.137006190000000139e+00 5.728465306999999562e+00
6.962220470000000105e+00 0.000000000000000000e+00 0.000000000000000000e+00 3.624356582999999965e+00 5.744335235000000317e+00 0.000000000000000000e+00 3.417993180999999936e+00 1.972808282999999996e+00 5.567719311000000282e+00
6.943670452000000104e+00 0.000000000000000000e+00 0.000000000000000000e+00 3.634275452999999878e+00 5.805590710999999793e+00 0.000000000000000000e+00 3.617973056999999937e+00 1.803097571999999982e+00 5.644113378000000125e+00
6.954503844000000434e+00 0.000000000000000000e+00 0.000000000000000000e+00 3.316869434000000005e+00 5.981306939999999628e+00 0.000000000000000000e+00 3.409993914999999820e+00 2.117889374999999852e+00 5.557672597999999908e+00
6.919454556999999895e+00 0.000000000000000000e+00 0.000000000000000000e+00 3.491464144000000047e+00 5.897428277999999580e+00 0.000000000000000000e+00 3.602107167000000221e+00 2.075892274000000093e+00 5.680066845999999892e+00
6.886418411000040152e+00 -1.370805737814159286e-22 -7.098729698680478726e-23 3.443210150849861151e+00 5.963812694999949926e+00 7.340211338052601435e-24 3.443210282104008257e+00 1.987938051244617199e+00 5.622736340999945348e+00
7.027697122000000185e+00 0.000000000000000000e+00 0.000000000000000000e+00 3.421100576000000171e+00 6.093047867000000117e+00 0.000000000000000000e+00 3.624501685999999889e+00 2.030138671000000006e+00 5.554406412999999709e+00
6.856221103000000205e+00 0.000000000000000000e+00 0.000000000000000000e+00 3.427507714999999955e+00 6.048819950000000389e+00 0.000000000000000000e+00 3.424167000999999821e+00 2.082110408000000135e+00 5.531999446999999570e+00
6.852583444999999607e+00 0.000000000000000000e+00 0.000000000000000000e+00 3.572764750000000156e+00 5.969848783999999853e+00 0.000000000000000000e+00 3.410043964000000205e+00 1.965251596999999961e+00 5.732185630000000032e+00
6.819349437999999708e+00 0.000000000000000000e+00 0.000000000000000000e+00 3.233085196000000217e+00 6.024917175999999763e+00 0.000000000000000000e+00 3.483801885000000098e+00 2.056616286000000127e+00 5.623534089999999708e+00
6.735500318999999791e+00 0.000000000000000000e+00 0.000000000000000000e+00 3.346447017000000024e+00 5.864889819000000060e+00 0.000000000000000000e+00 3.263851500999999988e+00 1.975299944000000085e+00 5.543651106000000439e+00
6.823972829999999767e+00 0.000000000000000000e+00 0.000000000000000000e+00 3.343097925999999998e+00 6.052778314000000215e+00 0.000000000000000000e+00 3.507844651000000091e+00 2.174166331999999979e+00 5.646324133000000245e+00
6.891839401000000365e+00 0.000000000000000000e+00 0.000000000000000000e+00 3.568170950999999924e+00 6.130150387999999673e+00 0.000000000000000000e+00 3.447505698000000063e+00 1.915675355000000080e+00 5.456849007999999834e+00
6.755727963000000003e+00 0.000000000000000000e+00 0.000000000000000000e+00 3.285907739000000216e+00 5.998323189999999805e+00 0.000000000000000000e+00 3.388788551000000204e+00 2.126522634000000078e+00 5.464086298999999869e+00
6.994961447999999749e+00 0.000000000000000000e+00 0.000000000000000000e+00 3.620677178999999857e+00 6.024925721999999872e+00 0.000000000000000000e+00 3.396645585999999994e+00 1.861722262000000017e+00 5.484847965000000158e+00
7.065361603000000379e+00 0.000000000000000000e+00 0.000000000000000000e+00 3.406430643999999841e+00 6.113176331000000019e+00 0.000000000000000000e+00 3.606239758000000073e+00 2.019044669999999986e+00 5.785248550999999573e+00
6.955282595000038093e+00 -7.183691874384421799e-23 2.201323433433100026e-23 3.477642252179986571e+00 6.023450822499949453e+00 9.712109588777552811e-23 3.477642383813369875e+00 2.007817432573043348e+00 5.678963703999944990e+00
6.951685911000000218e+00 0.000000000000000000e+00 0.000000000000000000e+00 3.299686633999999952e+00 6.146637370999999739e+00 0.000000000000000000e+00 3.466968613000000143e+00 1.972637723999999926e+00 5.800164843000000126e+00
6.870089528000000278e+00 0.000000000000000000e+00 0.000000000000000000e+00 3.438289097999999822e+00 6.089055467999999749e+00 0.000000000000000000e+00 3.429652207999999813e+00 2.048119525000000163e+00 5.654513801000000228e+00
6.892984569000000228e+00 0.000000000000000000e+00 0.000000000000000000e+00 3.306549691999999929e+00 6.027339764999999794e+00 0.000000000000000000e+00 3.459564589999999829e+00 2.135529596000000030e+00 5.682365071000000434e+00
6.770528817999999838e+00 0.000000000000000000e+00 0.000000000000000000e+00 3.290794990999999836e+00 6.173236995999999976e+00 0.000000000000000000e+00 3.192709475000000019e+00 1.953078343999999911e+00 5.586764710999999828e+00
7.094031371999999891e+00 0.000000000000000000e+00 0.000000000000000000e+00 3.376384299999999783e+00 6.148976016999999850e+00 0.000000000000000000e+00 3.379758993999999905e+00 2.015471751999999839e+00 5.638737013000000076e+00
6.908836507000000182e+00 0.000000000000000000e+00 0.000000000000000000e+00 3.322360854999999891e+00 5.849362018999999968e+00 0.000000000000000000e+00 3.555724988999999781e+00 2.053357275000000204e+00 5.547847127999999906e+00
6.900581445000000258e+00 0.000000000000000000e+00 0.000000000000000000e+00 3.427581330000000204e+00 5.882501440999999609e+00 0.000000000000000000e+00 3.483837022999999977e+00 2.099032182000000191e+00 5.644701859999999627e+00
7.153470076999999705e+00 0.000000000000000000e+00 0.000000000000000000e+00 3.548923262000000189e+00 6.143439212999999732e+00 0.000000000000000000e+00 3.532911583000000189e+00 2.179862242000000006e+00 5.607178829999999614e+00
7.026594122999999747e+00 0.000000000000000000e+00 0.000000000000000000e+00 3.358895921999999867e+00 5.953749461000000132e+00 0.000000000000000000e+00 3.619217787999999825e+00 2.153186203999999826e+00 5.703197964000000120e+00
6.941552964000000436e+00 0.000000000000000000e+00 0.000000000000000000e+00 3.449563332999999954e+00 6.057930756000000194e+00 0.000000000000000000e+00 3.587058809999999820e+00 2.070290190000000141e+00 5.744520437000000257e+00
