3.148080038498917599e+00 1.817549943924700706e+00 1.285199984999988887e+00 4.722130060503951121e+00 2.726319927023781897e+00 3.855599977499998054e+00 4.722130093491516689e+00 4.543869912174537617e+00 1.285199966999980958e+00 6.296170115496551034e+00 5.452639895273820869e+00 3.855599959500004559e+00 6.296170038498916099e+00 1.817549880424577990e+00 1.285199980499980521e+00 7.870210060503950444e+00 2.726319863523861020e+00 3.855599973000003899e+00 7.870210093491516012e+00 4.543869848674616740e+00 1.285199962499987025e+00 9.444250115496551246e+00 5.452639831773899992e+00 3.855599955000010404e+00 6.296169999999998268e+00 -1.270000437020366391e-07 -9.000002359628777171e-09 7.870210022005032613e+00 9.087698560992396590e-01 2.570399983500020635e+00 7.870210054992598181e+00 2.726319841249995157e+00 -2.699999594808917781e-08 9.444250076997631638e+00 3.635089824349278409e+00 2.570399965500027140e+00 3.148079999999999323e+00 -6.349992099601940586e-08 -4.499994032610327087e-09 4.722130022005033290e+00 9.087699195991606471e-01 2.570399988000014790e+00 4.722130054992598858e+00 2.726319904749916034e+00 -2.250000191547885073e-08 6.296170076997633203e+00 3.635089887849199286e+00 2.570399970000021295e+00
3.230399999999999938e+00 1.765770000000000062e+00 1.267039999999999944e+00 4.827009999999999579e+00 2.595450000000000035e+00 3.763469999999999871e+00 4.865680000000000227e+00 4.410009999999999764e+00 1.254559999999999897e+00 6.461710000000000065e+00 5.258200000000000429e+00 3.776019999999999932e+00 6.442999999999999616e+00 1.749309999999999921e+00 1.255439999999999889e+00 8.027779999999999916e+00 2.605620000000000047e+00 3.771739999999999871e+00 8.082750000000000767e+00 4.404270000000000351e+00 1.256040000000000045e+00 9.683960000000000790e+00 5.267369999999999663e+00 3.776370000000000005e+00 1.583999999999999991e-02 1.289999999999999914e-03 5.800000000000000034e-04 1.600240000000000107e+00 8.528099999999999570e-01 2.519760000000000222e+00 4.837659999999999627e+00 4.354449999999999932e+00 5.023439999999999905e+00 9.655010000000000758e+00 3.504420000000000091e+00 2.519660000000000011e+00 9.683080000000000354e+00 6.997119999999999784e+00 5.025820000000000398e+00 4.804280000000000328e+00 8.494399999999999729e-01 2.516300000000000203e+00 8.029130000000000322e+00 4.360759999999999970e+00 5.023209999999999731e+00 6.439879999999999605e+00 3.512849999999999806e+00 2.525310000000000166e+00
3.228740000000000165e+00 1.889739999999999975e+00 1.269870000000000054e+00 4.857079999999999842e+00 2.895270000000000010e+00 3.815840000000000121e+00 4.844450000000000145e+00 4.665440000000000254e+00 1.270650000000000057e+00 6.474540000000000184e+00 5.665449999999999875e+00 3.810270000000000046e+00 6.432190000000000296e+00 1.886330000000000062e+00 1.272669999999999968e+00 8.045709999999999695e+00 2.872710000000000097e+00 3.810690000000000133e+00 8.066039999999999210e+00 4.674690000000000012e+00 1.271400000000000086e+00 9.694089999999999208e+00 5.660359999999999836e+00 3.818589999999999929e+00 3.263490000000000002e+00 5.571649999999999991e+00 8.400000000000000348e-04 4.886099999999999888e+00 6.556479999999999642e+00 2.541490000000000027e+00 1.632069999999999910e+00 2.785219999999999807e+00 3.099999999999999999e-04 9.662869999999999848e+00 3.771609999999999907e+00 2.545329999999999870e+00 9.715550000000000352e+00 7.547360000000000291e+00 5.073459999999999859e+00 4.824300000000000033e+00 9.932499999999999662e-01 2.540280000000000094e+00 4.841020000000000323e+00 2.784120000000000150e+00 1.580000000000000024e-03 6.463300000000000267e+00 3.772440000000000015e+00 2.534990000000000077e+00
3.147380000000000067e+00 1.770690000000000097e+00 1.315369999999999928e+00 4.690739999999999910e+00 2.640639999999999876e+00 3.917569999999999997e+00 4.753940000000000055e+00 4.470950000000000202e+00 1.299369999999999914e+00 6.293300000000000338e+00 5.308580000000000076e+00 3.922359999999999847e+00 6.308189999999999742e+00 1.781740000000000101e+00 1.324019999999999975e+00 7.845710000000000406e+00 2.623089999999999922e+00 3.946250000000000036e+00 7.915370000000000239e+00 4.461439999999999628e+00 1.309120000000000061e+00 9.455740000000000478e+00 5.315140000000000420e+00 3.936970000000000081e+00 6.329270000000000174e+00 1.729999999999999984e-03 3.650000000000000033e-03 4.746979999999999755e+00 6.225120000000000431e+00 2.619540000000000202e+00 1.099454000000000065e+01 4.412239999999999718e+00 5.243470000000000297e+00 3.134290000000000020e+00 3.545350000000000001e+00 2.623450000000000060e+00 3.164940000000000087e+00 1.180000000000000059e-03 1.330000000000000019e-03 4.701830000000000176e+00 8.754199999999999759e-01 2.630310000000000148e+00 7.831439999999999735e+00 4.414710000000000356e+00 5.236690000000000289e+00 6.292720000000000091e+00 3.545609999999999928e+00 2.627580000000000027e+00
3.196309999999999985e+00 1.816400000000000015e+00 1.286399999999999988e+00 4.808460000000000178e+00 2.705529999999999990e+00 3.813299999999999912e+00 4.765329999999999622e+00 4.571340000000000181e+00 1.256299999999999972e+00 6.368850000000000122e+00 5.455700000000000216e+00 3.811459999999999848e+00 6.425089999999999968e+00 1.808170000000000055e+00 1.259100000000000108e+00 8.022130000000000649e+00 2.710949999999999971e+00 3.814919999999999867e+00 7.962299999999999933e+00 4.567499999999999893e+00 1.267989999999999950e+00 9.579340000000000188e+00 5.457239999999999647e+00 3.819189999999999863e+00 9.539839999999999876e+00 5.494110000000000049e+00 8.240000000000000796e-03 1.115867000000000075e+01 6.379979999999999762e+00 2.536789999999999878e+00 4.785770000000000302e+00 4.520139999999999603e+00 5.070890000000000342e+00 3.173779999999999824e+00 3.639320000000000110e+00 2.536449999999999871e+00 6.450300000000000367e+00 1.780030000000000001e+00 5.066259999999999764e+00 7.953700000000000436e+00 6.371900000000000119e+00 2.531309999999999949e+00 8.000289999999999679e+00 4.520279999999999632e+00 5.073190000000000310e+00 6.397829999999999906e+00 3.646619999999999973e+00 2.525599999999999845e+00
3.152159999999999851e+00 1.809330000000000105e+00 1.305620000000000003e+00 4.682859999999999800e+00 2.761940000000000062e+00 3.899589999999999890e+00 4.713049999999999962e+00 4.516899999999999693e+00 1.307269999999999932e+00 6.246010000000000062e+00 5.465580000000000105e+00 3.892799999999999816e+00 6.313380000000000436e+00 1.810780000000000056e+00 1.307609999999999939e+00 7.868769999999999598e+00 2.776549999999999851e+00 3.906559999999999810e+00 7.882839999999999847e+00 4.516779999999999795e+00 1.316969999999999974e+00 9.433279999999999887e+00 5.452910000000000146e+00 3.915929999999999911e+00 3.092719999999999914e+00 1.899319999999999897e+00 5.200949999999999740e+00 7.891510000000000247e+00 9.445200000000000262e-01 2.600919999999999899e+00 1.566740000000000022e+00 2.685099999999999820e+00 6.700000000000000226e-04 9.458999999999999631e+00 3.632629999999999804e+00 2.605389999999999873e+00 6.315380000000000216e+00 5.378440000000000332e+00 1.709999999999999932e-03 4.728850000000000442e+00 9.575599999999999667e-01 2.609179999999999833e+00 4.752760000000000318e+00 2.689480000000000093e+00 6.360000000000000202e-03 6.275900000000000034e+00 3.627590000000000092e+00 2.612270000000000092e+00
3.102300000000000058e+00 1.759279999999999955e+00 1.302599999999999980e+00 4.638370000000000104e+00 2.593449999999999811e+00 3.910699999999999843e+00 4.713180000000000369e+00 4.422550000000000203e+00 1.296990000000000087e+00 6.251459999999999795e+00 5.285190000000000055e+00 3.914229999999999876e+00 6.167810000000000237e+00 1.750110000000000054e+00 1.304499999999999993e+00 7.712240000000000428e+00 2.592369999999999841e+00 3.900589999999999780e+00 7.767730000000000246e+00 4.445090000000000430e+00 1.293840000000000101e+00 9.302020000000000621e+00 5.284600000000000186e+00 3.914359999999999840e+00 1.239850000000000030e+01 7.025719999999999743e+00 5.199160000000000004e+00 7.652429999999999843e+00 8.429900000000000171e-01 2.590520000000000156e+00 1.079682000000000031e+01 4.361180000000000057e+00 5.208490000000000286e+00 9.259949999999999903e+00 3.515800000000000036e+00 2.605529999999999902e+00 3.047449999999999992e+00 5.239999999999999866e-03 7.380000000000000275e-03 7.807929999999999815e+00 6.183370000000000033e+00 2.603439999999999976e+00 4.646189999999999820e+00 2.681909999999999794e+00 7.400000000000000328e-03 6.197160000000000224e+00 3.511299999999999866e+00 2.601789999999999825e+00
3.103400000000000158e+00 1.851380000000000026e+00 1.270510000000000028e+00 4.647429999999999950e+00 2.769719999999999960e+00 3.758420000000000094e+00 4.676630000000000287e+00 4.639969999999999928e+00 1.269300000000000095e+00 6.210530000000000328e+00 5.554560000000000386e+00 3.771189999999999820e+00 6.243129999999999846e+00 1.845690000000000053e+00 1.250739999999999963e+00 7.785779999999999923e+00 2.761600000000000055e+00 3.775720000000000187e+00 7.805939999999999657e+00 4.642730000000000246e+00 1.256159999999999943e+00 9.342409999999999215e+00 5.567980000000000373e+00 3.760079999999999867e+00 6.260830000000000339e+00 7.199999999999999803e-03 1.315999999999999982e-02 1.533979999999999899e+00 9.248300000000000409e-01 2.515649999999999942e+00 4.622399999999999842e+00 4.630969999999999587e+00 5.024250000000000327e+00 3.099450000000000038e+00 3.713690000000000158e+00 2.511760000000000215e+00 6.190649999999999764e+00 1.845550000000000024e+00 5.009649999999999714e+00 7.791140000000000398e+00 6.483200000000000074e+00 2.504859999999999864e+00 4.682380000000000209e+00 2.792009999999999881e+00 5.559999999999999838e-03 6.223729999999999762e+00 3.712410000000000210e+00 2.505139999999999922e+00
3.111079999999999846e+00 1.769660000000000011e+00 1.259570000000000078e+00 4.624859999999999971e+00 2.634889999999999954e+00 3.762589999999999879e+00 4.710449999999999804e+00 4.410870000000000068e+00 1.250240000000000018e+00 6.229930000000000412e+00 5.284200000000000230e+00 3.749800000000000022e+00 6.172290000000000276e+00 1.752639999999999976e+00 1.250299999999999967e+00 7.712780000000000413e+00 2.625199999999999978e+00 3.756559999999999899e+00 7.800360000000000404e+00 4.407289999999999708e+00 1.263970000000000038e+00 9.307430000000000092e+00 5.286419999999999675e+00 3.753130000000000077e+00 9.197190000000000865e+00 1.749880000000000102e+00 5.001500000000000057e+00 7.678119999999999834e+00 8.704899999999999860e-01 2.501100000000000101e+00 1.608400000000000052e+00 2.645820000000000061e+00 1.573000000000000093e-02 9.276839999999999975e+00 3.524300000000000210e+00 2.497459999999999791e+00 3.066949999999999843e+00 4.590000000000000330e-03 7.069999999999999896e-03 7.811119999999999841e+00 6.169660000000000366e+00 2.501679999999999904e+00 7.734490000000000087e+00 4.383589999999999876e+00 5.004369999999999763e+00 6.218300000000000161e+00 3.508529999999999927e+00 2.504039999999999822e+00
3.186259999999999870e+00 1.786370000000000013e+00 1.269940000000000069e+00 4.817070000000000185e+00 2.634160000000000057e+00 3.834719999999999906e+00 4.750270000000000437e+00 4.517140000000000377e+00 1.278990000000000071e+00 6.363400000000000389e+00 5.353100000000000414e+00 3.840809999999999835e+00 6.386940000000000062e+00 1.786399999999999988e+00 1.278720000000000079e+00 8.014760000000000773e+00 2.632470000000000088e+00 3.837330000000000130e+00 7.941629999999999967e+00 4.504139999999999588e+00 1.274559999999999915e+00 9.555229999999999890e+00 5.360430000000000028e+00 3.843059999999999921e+00 6.361699999999999910e+00 7.133869999999999933e+00 5.113190000000000346e+00 1.111843000000000004e+01 6.286010000000000097e+00 2.564709999999999823e+00 7.934569999999999901e+00 2.708239999999999981e+00 3.739999999999999835e-03 3.183419999999999916e+00 3.559489999999999821e+00 2.555070000000000174e+00 6.449250000000000149e+00 1.700120000000000076e+00 5.111080000000000290e+00 7.923399999999999999e+00 6.281640000000000335e+00 2.552239999999999842e+00 8.007609999999999673e+00 4.401909999999999989e+00 5.108600000000000030e+00 6.380630000000000024e+00 3.576900000000000190e+00 2.568109999999999893e+00
3.126050000000000217e+00 1.841269999999999962e+00 1.272140000000000049e+00 4.645450000000000301e+00 2.759770000000000056e+00 3.826700000000000212e+00 4.732910000000000394e+00 4.588849999999999874e+00 1.291700000000000070e+00 6.263040000000000163e+00 5.510550000000000281e+00 3.836609999999999854e+00 6.230249999999999844e+00 1.840619999999999923e+00 1.277910000000000101e+00 7.754649999999999821e+00 2.744200000000000195e+00 3.833060000000000134e+00 7.852109999999999701e+00 4.594050000000000189e+00 1.283649999999999958e+00 9.365529999999999688e+00 5.524090000000000167e+00 3.839820000000000011e+00 3.053889999999999993e+00 1.840549999999999908e+00 5.096339999999999648e+00 7.742720000000000269e+00 9.187199999999999811e-01 2.559079999999999799e+00 7.825630000000000308e+00 2.754430000000000156e+00 8.499999999999999526e-04 3.140420000000000211e+00 3.675980000000000025e+00 2.553279999999999994e+00 3.108499999999999819e+00 1.225000000000000047e-02 1.341000000000000004e-02 4.641469999999999985e+00 9.176100000000000367e-01 2.557290000000000063e+00 4.717010000000000147e+00 2.754119999999999902e+00 3.129999999999999970e-03 6.248820000000000263e+00 3.670630000000000059e+00 2.557710000000000150e+00
3.179880039076284248e+00 1.835909943160368707e+00 1.298179984666647968e+00 4.769820061370011466e+00 2.753859926231082778e+00 3.894549977000001828e+00 4.769820094934939192e+00 4.589769910910395545e+00 1.298179966166645327e+00 6.359770117228665143e+00 5.507719893980906889e+00 3.894549958499984754e+00 6.359770039076283688e+00 1.835909878660221484e+00 1.298179980166638048e+00 7.949710061370010017e+00 2.753859861730935332e+00 3.894549972499991686e+00 7.949710094934937743e+00 4.589769846410248100e+00 1.298179961666635407e+00 9.539650117228664072e+00 5.507719829480961948e+00 3.894549953999989267e+00 6.359769999999998369e+00 -1.290000915126117033e-07 -9.000005619690618894e-09 7.949710022293711376e+00 9.179498540705632870e-01 2.596359983333347721e+00 7.949710055858651536e+00 2.753859838749935562e+00 -2.750000829814920563e-08 9.539650078152366319e+00 3.671809821820589903e+00 2.596359964833344858e+00 3.179879999999998930e+00 -6.449994433747191269e-08 -4.499995734113309012e-09 4.769820022293712825e+00 9.179499185707103992e-01 2.596359987833357419e+00 4.769820055858652985e+00 2.753859903250083008e+00 -2.299999841257189822e-08 6.359770078152365613e+00 3.671809886320534400e+00 2.596359969333340789e+00
3.165579999999999838e+00 1.833690000000000042e+00 1.279239999999999933e+00 4.731609999999999872e+00 2.729010000000000158e+00 3.852090000000000014e+00 4.715469999999999828e+00 4.629089999999999705e+00 1.275069999999999926e+00 6.281299999999999883e+00 5.513930000000000220e+00 3.846490000000000187e+00 6.370219999999999771e+00 1.842019999999999991e+00 1.294059999999999988e+00 7.951150000000000162e+00 2.724139999999999784e+00 3.843319999999999848e+00 7.923790000000000333e+00 4.627030000000000420e+00 1.282189999999999941e+00 9.495559999999999334e+00 5.513110000000000177e+00 3.847049999999999859e+00 6.437529999999999752e+00 1.072000000000000036e-02 9.740000000000000394e-03 1.108783000000000030e+01 6.463689999999999714e+00 2.564750000000000085e+00 1.541309999999999958e+00 2.774410000000000043e+00 9.180000000000000659e-03 3.132019999999999804e+00 3.676320000000000032e+00 2.565679999999999961e+00 9.446270000000000167e+00 7.347010000000000041e+00 5.124789999999999957e+00 4.776889999999999858e+00 8.956100000000000172e-01 2.557389999999999830e+00 7.899849999999999817e+00 4.574880000000000280e+00 5.123509999999999565e+00 6.330070000000000086e+00 3.681459999999999955e+00 2.561669999999999892e+00
3.242319999999999869e+00 1.843569999999999931e+00 1.328019999999999978e+00 4.817879999999999718e+00 2.745649999999999924e+00 3.988360000000000127e+00 4.882439999999999891e+00 4.659279999999999866e+00 1.330440000000000067e+00 6.467579999999999885e+00 5.545840000000000103e+00 3.990870000000000140e+00 6.498800000000000132e+00 1.851799999999999891e+00 1.319220000000000059e+00 8.067280000000000229e+00 2.735339999999999883e+00 4.003400000000000070e+00 8.139060000000000628e+00 4.670930000000000248e+00 1.344540000000000068e+00 9.727660000000000196e+00 5.539559999999999818e+00 3.989489999999999981e+00 3.279850000000000154e+00 5.604230000000000267e+00 6.760000000000000384e-03 8.097089999999999677e+00 8.994400000000000173e-01 2.648779999999999912e+00 4.807310000000000194e+00 4.582209999999999894e+00 5.324329999999999785e+00 9.731619999999999493e+00 3.701579999999999870e+00 2.666049999999999809e+00 3.246840000000000170e+00 9.140000000000000555e-03 1.128999999999999969e-02 8.127610000000000667e+00 6.494119999999999671e+00 2.675990000000000091e+00 4.906179999999999986e+00 2.813470000000000137e+00 3.699999999999999947e-04 6.467900000000000205e+00 3.701659999999999950e+00 2.661300000000000221e+00
3.097129999999999939e+00 1.884409999999999918e+00 1.314729999999999954e+00 4.578750000000000320e+00 2.837650000000000006e+00 3.916399999999999881e+00 4.612470000000000070e+00 4.713429999999999787e+00 1.310850000000000071e+00 6.111480000000000246e+00 5.660529999999999617e+00 3.900419999999999998e+00 6.229190000000000005e+00 1.889329999999999954e+00 1.302959999999999896e+00 7.722389999999999866e+00 2.837829999999999853e+00 3.897619999999999862e+00 7.756490000000000329e+00 4.714819999999999567e+00 1.301399999999999890e+00 9.246980000000000643e+00 5.658870000000000289e+00 3.911690000000000111e+00 6.800000000000000488e-04 5.599999999999999509e-04 2.999999999999999737e-04 4.553300000000000125e+00 6.602630000000000443e+00 2.598990000000000133e+00 1.079227000000000025e+01 4.719920000000000115e+00 5.209069999999999645e+00 9.307669999999999888e+00 3.769169999999999909e+00 2.611099999999999977e+00 6.116030000000000300e+00 1.898090000000000055e+00 5.204790000000000028e+00 4.630060000000000286e+00 9.435900000000000398e-01 2.604540000000000077e+00 4.677039999999999864e+00 2.832609999999999850e+00 2.599999999999999881e-03 6.161129999999999995e+00 3.769550000000000178e+00 2.617760000000000087e+00
3.315840000000000121e+00 1.790999999999999925e+00 1.269589999999999996e+00 4.978399999999999714e+00 2.622040000000000148e+00 3.788159999999999972e+00 5.007900000000000240e+00 4.508650000000000269e+00 1.264310000000000045e+00 6.656859999999999999e+00 5.357840000000000380e+00 3.796969999999999956e+00 6.581900000000000084e+00 1.783479999999999954e+00 1.255530000000000035e+00 8.232269999999999754e+00 2.621100000000000207e+00 3.781460000000000043e+00 8.265829999999999345e+00 4.512369999999999770e+00 1.265770000000000062e+00 9.923220000000000596e+00 5.355940000000000367e+00 3.799809999999999910e+00 3.379370000000000207e+00 5.449729999999999741e+00 2.160000000000000028e-03 8.191700000000000870e+00 8.436200000000000365e-01 2.524570000000000203e+00 8.229139999999999233e+00 2.730780000000000207e+00 4.969999999999999592e-03 3.349720000000000031e+00 3.571899999999999853e+00 2.534199999999999786e+00 9.977270000000000749e+00 7.131020000000000358e+00 5.057380000000000209e+00 4.935810000000000031e+00 8.545199999999999463e-01 2.521990000000000176e+00 4.960230000000000139e+00 2.727440000000000087e+00 2.690000000000000117e-03 6.617479999999999585e+00 3.571289999999999853e+00 2.526569999999999983e+00
3.057780000000000165e+00 1.829960000000000031e+00 1.294410000000000061e+00 4.578850000000000087e+00 2.734700000000000131e+00 3.891030000000000211e+00 4.527840000000000309e+00 4.617880000000000429e+00 1.301330000000000098e+00 6.050690000000000346e+00 5.507859999999999978e+00 3.895799999999999930e+00 6.141379999999999839e+00 1.835139999999999993e+00 1.305560000000000054e+00 7.655910000000000437e+00 2.737109999999999932e+00 3.903259999999999952e+00 7.619559999999999889e+00 4.610689999999999955e+00 1.296459999999999946e+00 9.136210000000000164e+00 5.522490000000000343e+00 3.896549999999999958e+00 9.226649999999999352e+00 1.810510000000000064e+00 5.187020000000000408e+00 4.496839999999999726e+00 6.445090000000000430e+00 2.593750000000000000e+00 1.489679999999999893e+00 2.766830000000000123e+00 3.939999999999999926e-03 9.180300000000000793e+00 3.682449999999999779e+00 2.592779999999999863e+00 6.149210000000000065e+00 1.808799999999999963e+00 5.187540000000000262e+00 4.620409999999999684e+00 9.109800000000000120e-01 2.583320000000000061e+00 7.624559999999999782e+00 4.580569999999999808e+00 5.187909999999999577e+00 6.102500000000000036e+00 3.674889999999999990e+00 2.602090000000000014e+00
3.252349999999999852e+00 1.856060000000000043e+00 1.278200000000000003e+00 4.858900000000000219e+00 2.759560000000000013e+00 3.812279999999999891e+00 4.899440000000000239e+00 4.704410000000000203e+00 1.277709999999999901e+00 6.538359999999999950e+00 5.588429999999999787e+00 3.811679999999999957e+00 6.470579999999999998e+00 1.864279999999999937e+00 1.265649999999999942e+00 8.089679999999999538e+00 2.766539999999999999e+00 3.801670000000000105e+00 8.121729999999999450e+00 4.692230000000000345e+00 1.265919999999999934e+00 9.743969999999999132e+00 5.584690000000000154e+00 3.818880000000000052e+00 6.423339999999999606e+00 2.700000000000000143e-03 1.660000000000000017e-03 8.043129999999999669e+00 9.008500000000000396e-01 2.538359999999999950e+00 4.906749999999999723e+00 4.623660000000000103e+00 5.081330000000000346e+00 9.707839999999999137e+00 3.727310000000000123e+00 2.542250000000000121e+00 6.448690000000000033e+00 1.797269999999999923e+00 5.083260000000000112e+00 4.840329999999999799e+00 9.120500000000000274e-01 2.547099999999999920e+00 8.114910000000000068e+00 4.627930000000000099e+00 5.082449999999999690e+00 6.495949999999999669e+00 3.726300000000000168e+00 2.542030000000000012e+00
3.175790000000000113e+00 1.797600000000000087e+00 1.286129999999999995e+00 4.712620000000000253e+00 2.640429999999999833e+00 3.901780000000000026e+00 4.806079999999999686e+00 4.502430000000000376e+00 1.301479999999999970e+00 6.355859999999999843e+00 5.357899999999999885e+00 3.899570000000000203e+00 6.339640000000000164e+00 1.795560000000000045e+00 1.314400000000000013e+00 7.875670000000000393e+00 2.654879999999999907e+00 3.898690000000000211e+00 7.976350000000000051e+00 4.513309999999999711e+00 1.301490000000000036e+00 9.529719999999999303e+00 5.370800000000000018e+00 3.916920000000000179e+00 9.598639999999999617e+00 5.449089999999999989e+00 6.859999999999999779e-03 1.554699999999999971e+00 8.628299999999999859e-01 2.608890000000000153e+00 7.943859999999999921e+00 2.716699999999999893e+00 8.599999999999999789e-04 9.499650000000000816e+00 3.566769999999999996e+00 2.615320000000000089e+00 6.265179999999999971e+00 1.711489999999999956e+00 5.197849999999999859e+00 4.702720000000000233e+00 8.591199999999999948e-01 2.603180000000000049e+00 7.914760000000000240e+00 4.437030000000000030e+00 5.207989999999999675e+00 6.356869999999999798e+00 3.581970000000000098e+00 2.604019999999999779e+00
3.150860000000000216e+00 1.839590000000000058e+00 1.286219999999999919e+00 4.765930000000000000e+00 2.775450000000000195e+00 3.834950000000000081e+00 4.772719999999999629e+00 4.618739999999999846e+00 1.293649999999999967e+00 6.387999999999999901e+00 5.534720000000000084e+00 3.838760000000000172e+00 6.244349999999999845e+00 1.851560000000000095e+00 1.276240000000000041e+00 7.849050000000000082e+00 2.787659999999999805e+00 3.833930000000000060e+00 7.863660000000000316e+00 4.624520000000000408e+00 1.277220000000000022e+00 9.469359999999999999e+00 5.552430000000000199e+00 3.833209999999999784e+00 6.181930000000000369e+00 8.290000000000000493e-03 1.539999999999999919e-03 1.101622000000000057e+01 6.470080000000000275e+00 2.556220000000000159e+00 4.818889999999999674e+00 4.616450000000000387e+00 5.112359999999999793e+00 3.223469999999999835e+00 3.696979999999999933e+00 2.556280000000000108e+00 9.537300000000000111e+00 7.398279999999999745e+00 5.120110000000000383e+00 7.935389999999999944e+00 6.461669999999999803e+00 2.568890000000000118e+00 7.917989999999999640e+00 4.622289999999999566e+00 5.119469999999999743e+00 6.317719999999999558e+00 3.697760000000000158e+00 2.562609999999999832e+00
3.119650000000000034e+00 1.824600000000000000e+00 1.300950000000000051e+00 4.628510000000000346e+00 2.690809999999999924e+00 3.892500000000000071e+00 4.679879999999999818e+00 4.593169999999999753e+00 1.300440000000000040e+00 6.199349999999999916e+00 5.477850000000000108e+00 3.887869999999999937e+00 6.284150000000000347e+00 1.827820000000000000e+00 1.303600000000000092e+00 7.783089999999999620e+00 2.688820000000000210e+00 3.887350000000000083e+00 7.838779999999999859e+00 4.584620000000000140e+00 1.303279999999999994e+00 9.351620000000000488e+00 5.463479999999999670e+00 3.895420000000000105e+00 9.436379999999999768e+00 5.549339999999999939e+00 6.420000000000000359e-03 1.523789999999999978e+00 8.734600000000000142e-01 2.605100000000000193e+00 4.590239999999999654e+00 4.516040000000000276e+00 5.183259999999999756e+00 3.078590000000000160e+00 3.644120000000000026e+00 2.591800000000000104e+00 6.281380000000000408e+00 5.545939999999999870e+00 9.459999999999999659e-03 4.661290000000000155e+00 8.656000000000000361e-01 2.591110000000000024e+00 7.744349999999999845e+00 4.506829999999999892e+00 5.189180000000000348e+00 6.228229999999999933e+00 3.636569999999999858e+00 2.596330000000000027e+00
3.203100000000000058e+00 1.887979999999999992e+00 1.258529999999999927e+00 4.776519999999999655e+00 2.875859999999999861e+00 3.775999999999999801e+00 4.773990000000000400e+00 4.687540000000000262e+00 1.251309999999999922e+00 6.346460000000000434e+00 5.678639999999999688e+00 3.785140000000000171e+00 6.464769999999999683e+00 1.880360000000000031e+00 1.259980000000000100e+00 8.039999999999999147e+00 2.874950000000000117e+00 3.768429999999999946e+00 8.021000000000000796e+00 4.676919999999999966e+00 1.265079999999999982e+00 9.617029999999999745e+00 5.662930000000000241e+00 3.784489999999999910e+00 6.513889999999999958e+00 1.299999999999999940e-02 1.170000000000000033e-03 1.573239999999999972e+00 9.824800000000000200e-01 2.517619999999999969e+00 8.081780000000000186e+00 2.796670000000000211e+00 1.314000000000000064e-02 9.661630000000000607e+00 3.773359999999999825e+00 2.521160000000000068e+00 9.547430000000000305e+00 7.535210000000000186e+00 5.035879999999999690e+00 4.833009999999999806e+00 9.835199999999999498e-01 2.518369999999999997e+00 4.836450000000000138e+00 2.796260000000000190e+00 3.600000000000000227e-04 6.410940000000000083e+00 3.778399999999999981e+00 2.525119999999999809e+00
3.211680039364975592e+00 1.854269942660334625e+00 1.311159984666641298e+00 4.817520061803045373e+00 2.781399925481014890e+00 3.933489976999990922e+00 4.817520095656468548e+00 4.635659910160350172e+00 1.311159966166687951e+00 6.423360118094739946e+00 5.562799892981029615e+00 3.933489958499979178e+00 6.423360039364975016e+00 1.854269877660366328e+00 1.311159980166643813e+00 8.029200061803043909e+00 2.781399860481046815e+00 3.933489972499993215e+00 8.029200095656467084e+00 4.635659845160382098e+00 1.311159961666690466e+00 9.635040118094739370e+00 5.562799827981061540e+00 3.933489953999981914e+00 6.423359999999997960e+00 -1.299999363818857362e-07 -8.999994832518924475e-09 8.029200022438068629e+00 9.271298528207438938e-01 2.622329983333354875e+00 8.029200056291692533e+00 2.781399837500079020e+00 -2.750000653090246365e-08 9.635040078729764090e+00 3.708529820320759285e+00 2.622329964833343130e+00 3.211679999999998980e+00 -6.499996819094286810e-08 -4.499997416259462237e-09 4.817520022438068317e+00 9.271299178207120795e-01 2.622329987833352138e+00 4.817520056291693997e+00 2.781399902500047094e+00 -2.300000911464300142e-08 6.423360078729762890e+00 3.708529885320727804e+00 2.622329969333340394e+00
3.253169999999999895e+00 1.913939999999999975e+00 1.283300000000000107e+00 4.951590000000000380e+00 2.924049999999999816e+00 3.873549999999999827e+00 4.858509999999999884e+00 4.752419999999999867e+00 1.283099999999999907e+00 6.551809999999999690e+00 5.760189999999999699e+00 3.865069999999999784e+00 6.485789999999999722e+00 1.916039999999999965e+00 1.277819999999999956e+00 8.190269999999999939e+00 2.941749999999999865e+00 3.855729999999999880e+00 8.103999999999999204e+00 4.748070000000000235e+00 1.288350000000000106e+00 9.790160000000000196e+00 5.757279999999999731e+00 3.866449999999999942e+00 6.472330000000000361e+00 8.290000000000000493e-03 1.789999999999999925e-03 1.692819999999999991e+00 1.018620000000000081e+00 2.569179999999999797e+00 8.068619999999999237e+00 2.823199999999999932e+00 8.899999999999999925e-03 9.770849999999999369e+00 3.850880000000000081e+00 2.589620000000000033e+00 6.457580000000000098e+00 5.646630000000000038e+00 6.340000000000000149e-03 4.922270000000000145e+00 1.012189999999999923e+00 2.576519999999999921e+00 4.854429999999999801e+00 2.833299999999999930e+00 9.520000000000000684e-03 6.528590000000000337e+00 3.844440000000000079e+00 2.581529999999999880e+00