-1.470702091199999870e+02
-1.463502087399999994e+02
-1.470827554500000076e+02
-1.469609571599999924e+02
-1.470515083100000027e+02
-1.470025821499999950e+02
-1.462287768500000027e+02
-1.467777187700000070e+02
-1.452982295099999988e+02
-1.469983077400000013e+02
-1.468225854000000083e+02
-1.472857301399999983e+02
-1.471556621400000040e+02
-1.469302557700000023e+02
-1.470681927500000086e+02
-1.468775394799999958e+02
-1.469266144700000041e+02
-1.470192457400000023e+02
-1.470408725899999922e+02
-1.468122912100000121e+02
-1.471519128699999897e+02
-1.468777233000000138e+02
-1.472840451099999939e+02
-1.470215790800000093e+02
-1.469700909000000024e+02
-1.467379842400000030e+02
-1.471505969000000107e+02
-1.466172444700000028e+02
-1.469328315900000064e+02
-1.470241088500000046e+02
-1.470396185900000035e+02
-1.469429165599999862e+02
-1.470763464199999930e+02
-1.422148351499999990e+02
-1.422318120399999941e+02
-1.422885451200000091e+02
-1.420177993000000072e+02
-1.420063553999999897e+02
-1.420829166499999872e+02
-1.423592235000000130e+02
-1.419396286099999998e+02
-1.421971838899999909e+02
-1.423100957899999912e+02
-1.423296331800000019e+02
-1.424163062899999943e+02
-1.423081805699999904e+02
-1.423285850299999993e+02
-1.423746294499999863e+02
-1.423679009699999938e+02
-1.418830224900000019e+02
-1.423930499100000020e+02
-1.421119418600000017e+02
-1.420003869599999859e+02
-1.422480575300000112e+02
-1.420400042800000051e+02
-1.424411347600000113e+02
-1.420737168599999904e+02
-1.424081505100000129e+02
-1.424035208100000034e+02
-1.421418180599999914e+02
-1.420943951200000015e+02
-1.421216828999999962e+02
-1.423122542199999998e+02
-1.420698431499999970e+02
-1.423047621599999957e+02
-1.423395635400000003e+02
