1.728035256269810394e-13 8.000000046216133179e-06 7.999999953783864403e-06 -5.999999920586613376e-06 5.000000034370745795e-06 -1.500000002030844030e-05 -7.000000124043705127e-06 -6.999999789478797950e-06 1.200000005044520333e-05 -2.731820441897126429e-14 -1.000000028885083841e-06 -4.999999994222983293e-06 -3.999999890568354081e-06 5.000000115346099441e-06 5.999999976832679192e-06 4.000000183127264324e-06 9.999999844214780279e-06 -1.300000006348793075e-05 3.999999976811290430e-06 -2.000000011359796781e-06 1.200000000583627076e-05 -5.000000156920848185e-06 -6.999999962692184705e-06 -1.099999995241367688e-05 1.000001316832748865e-06 6.500000000293704378e-05 3.999999623064464117e-06 -5.199999933292755432e-05 3.300000105466900250e-05 9.999998836893662942e-07 -5.000000066405471043e-05 -3.199999906655122536e-05 -1.299999974366341957e-05 1.499999984514389536e-05 -1.199999995016696832e-05 6.100000004788258827e-05 -3.000000124679013477e-06 -2.000000280330992602e-06 -5.899999998415764217e-05 5.300000080096338168e-05 3.899999898870717030e-05 9.999999698935980235e-06 5.199999943092366235e-05 -2.800000106622303040e-05 -2.999999912574450725e-06 -2.000001462476896409e-06 -7.299999991921887342e-05 7.000000424581111775e-06
-4.410300000000000331e-02 -1.816899999999999904e-01 -1.478140000000000009e-01 -1.168759999999999938e-01 1.176210000000000033e-01 1.598690000000000111e-01 7.633099999999999608e-02 5.001200000000000090e-02 4.317999999999999790e-03 -3.879999999999999985e-04 -9.176000000000000129e-03 -3.246000000000000274e-02 -1.278199999999999996e-02 3.247900000000000093e-02 -2.716400000000000065e-02 4.879000000000000004e-02 1.417500000000000010e-02 3.351500000000000312e-02 3.984700000000000047e-02 5.692799999999999944e-02 7.789999999999999616e-04 -5.442000000000000309e-02 -1.335959999999999925e-01 -2.187800000000000161e-02 -2.484879999999999867e-01 1.670639999999999903e-01 1.186939999999999940e-01 -2.052400000000000058e-01 9.083499999999999908e-02 -1.472630000000000050e-01 -2.216339999999999977e-01 2.673800000000000135e-02 2.729239999999999999e-01 5.695399999999999768e-02 4.667199999999999821e-02 -8.074099999999999333e-02 1.657849999999999879e-01 1.846649999999999958e-01 1.815350000000000019e-01 1.116029999999999939e-01 3.314799999999999691e-02 -2.628300000000000081e-01 2.475420000000000120e-01 -2.156480000000000063e-01 2.813129999999999797e-01 1.570789999999999964e-01 -2.802250000000000019e-01 -3.327990000000000115e-01
3.818900000000000072e-02 -5.402400000000000257e-02 9.666299999999999892e-02 -1.459449999999999914e-01 -1.795509999999999884e-01 -2.943700000000000136e-02 1.399519999999999931e-01 5.066899999999999876e-02 -3.104600000000000068e-02 6.468400000000000538e-02 4.212099999999999872e-02 -3.571900000000000075e-02 4.317100000000000104e-02 -7.992000000000000839e-03 -1.278100000000000069e-02 8.061699999999999422e-02 3.193300000000000305e-02 -2.714099999999999846e-02 3.570600000000000163e-02 2.260399999999999909e-02 4.270800000000000290e-02 -1.230330000000000035e-01 5.899800000000000183e-02 -6.270399999999999585e-02 7.538400000000000656e-02 -4.703700000000000242e-02 7.277200000000000335e-02 -5.201399999999999774e-02 -1.072599999999999942e-02 -7.428700000000000581e-02 5.737099999999999839e-02 -1.004950000000000010e-01 -1.918299999999999866e-02 9.350200000000000178e-02 6.639599999999999669e-02 -8.927200000000000413e-02 -1.548299999999999954e-01 9.205000000000000682e-02 6.132399999999999657e-02 1.871400000000000147e-02 -3.016900000000000137e-02 -4.787999999999999722e-03 -5.071799999999999919e-02 3.780599999999999933e-02 3.532400000000000123e-02 -1.207509999999999972e-01 2.741599999999999940e-02 7.756799999999999806e-02
-1.199899999999999925e-02 6.812300000000000300e-02 -1.665000000000000160e-02 -1.134129999999999999e-01 1.907999999999999974e-02 1.549329999999999874e-01 -3.164899999999999658e-02 -1.410889999999999922e-01 9.394199999999999773e-02 -7.085099999999999731e-02 1.708109999999999906e-01 1.785970000000000057e-01 1.028310000000000057e-01 -1.211290000000000006e-01 -1.741689999999999905e-01 5.173900000000000027e-02 1.688429999999999931e-01 -1.311390000000000056e-01 1.248230000000000034e-01 -6.683799999999999464e-02 -1.486600000000000074e-02 -7.675999999999999490e-02 -7.834999999999999951e-03 -1.618599999999999900e-02 -6.998600000000000654e-02 -2.141300000000000148e-02 3.467900000000000149e-02 -8.164699999999999736e-02 1.112270000000000064e-01 1.281799999999999953e-02 1.354099999999999922e-02 3.671100000000000058e-02 8.312899999999999456e-02 -8.178000000000000547e-02 5.209400000000000142e-02 -6.277699999999999947e-02 1.038540000000000019e-01 -1.014900000000000004e-02 5.301600000000000062e-02 -2.765000000000000097e-02 -2.007899999999999963e-01 -1.795289999999999941e-01 1.415800000000000045e-02 -6.435299999999999354e-02 8.357100000000000639e-02 1.547890000000000099e-01 6.708000000000000421e-03 -9.936799999999999800e-02
1.722500000000000073e-02 6.813900000000000512e-02 -1.400619999999999921e-01 4.582699999999999968e-02 5.899100000000000177e-02 -1.256390000000000007e-01 -1.967909999999999937e-01 -8.262200000000000100e-02 2.019289999999999974e-01 -5.368000000000000375e-03 -1.020829999999999932e-01 -4.549600000000000172e-02 -1.313189999999999913e-01 6.415899999999999381e-02 1.523460000000000092e-01 5.527499999999999775e-02 -1.663600000000000148e-02 -1.195220000000000032e-01 1.107260000000000050e-01 -2.686900000000000052e-02 2.711900000000000074e-02 8.818099999999999550e-02 -5.968600000000000294e-02 -1.658900000000000097e-01 1.803690000000000015e-01 6.403999999999999970e-03 -2.590180000000000260e-01 1.639019999999999921e-01 1.000489999999999990e-01 -3.318100000000000216e-02 5.344900000000000345e-02 -4.172000000000000014e-02 3.011799999999999894e-02 6.947399999999999409e-02 -2.156929999999999958e-01 4.429000000000000298e-02 -1.303850000000000009e-01 2.498699999999999879e-02 7.961999999999999633e-02 -1.738619999999999888e-01 2.839849999999999874e-01 1.558340000000000003e-01 1.686899999999999858e-02 8.158500000000000474e-02 7.405599999999999683e-02 -1.635729999999999962e-01 -1.429890000000000050e-01 1.234949999999999937e-01
-1.139330000000000065e-01 1.748129999999999962e-01 -7.527300000000000657e-02 3.662399999999999683e-02 4.560499999999999970e-02 1.452759999999999885e-01 -3.326300000000000090e-02 -6.384199999999999597e-02 -9.149899999999999700e-02 1.399800000000000003e-02 -1.302260000000000084e-01 2.546760000000000135e-01 1.067749999999999949e-01 1.222189999999999943e-01 -6.248900000000000288e-02 -9.475699999999999401e-02 -9.419600000000000195e-02 8.038000000000000006e-03 1.007819999999999966e-01 -1.674970000000000070e-01 -1.822370000000000101e-01 8.319000000000000006e-03 2.926799999999999888e-02 -2.263199999999999934e-02 -2.420819999999999916e-01 -2.371250000000000024e-01 1.012040000000000023e-01 1.761959999999999915e-01 -5.238500000000000101e-02 1.030750000000000000e-01 1.305989999999999929e-01 2.509970000000000256e-01 3.321999999999999953e-02 -9.515300000000000147e-02 1.124679999999999985e-01 -1.012450000000000017e-01 1.554409999999999958e-01 6.740000000000000114e-04 1.739570000000000005e-01 -2.365539999999999865e-01 -3.388950000000000018e-01 -9.902500000000000191e-02 -1.503609999999999947e-01 2.406900000000000012e-02 -1.104979999999999990e-01 2.373709999999999987e-01 3.240540000000000087e-01 -7.455000000000000515e-02
-3.067200000000000135e-02 -2.655999999999999941e-03 -1.443499999999999991e-02 1.001810000000000062e-01 7.539400000000000268e-02 -9.054199999999999748e-02 -2.932699999999999890e-02 1.862669999999999881e-01 1.069530000000000064e-01 -3.050500000000000086e-02 -2.314100000000000046e-01 -1.531899999999999928e-01 -1.208089999999999997e-01 9.907699999999999840e-02 -7.079999999999999705e-04 -1.683040000000000092e-01 3.020700000000000121e-02 9.671000000000000776e-03 -7.832999999999999685e-02 -3.709699999999999803e-02 1.301380000000000037e-01 3.070700000000000165e-02 -1.214439999999999964e-01 -1.365800000000000070e-01 9.793300000000000616e-02 1.797060000000000046e-01 5.857899999999999913e-02 -3.049100000000000074e-02 -9.604799999999999449e-02 1.971009999999999984e-01 -6.205200000000000299e-02 -1.357750000000000068e-01 -8.164200000000000623e-02 -2.010000000000000068e-04 6.797000000000000090e-03 1.057909999999999962e-01 1.997200000000000017e-02 -9.707799999999999763e-02 -1.892099999999999893e-01 4.902000000000000107e-02 1.864870000000000139e-01 9.464300000000000490e-02 2.312460000000000071e-01 -5.962300000000000239e-02 -1.277480000000000004e-01 2.163500000000000145e-02 1.719599999999999948e-02 9.117799999999999516e-02
8.371800000000000075e-02 6.292499999999999483e-02 -2.186059999999999948e-01 -4.020000000000000136e-03 6.859200000000000019e-02 1.311440000000000106e-01 -6.653000000000000060e-03 -3.320000000000000034e-02 -1.572610000000000119e-01 -3.569699999999999956e-02 1.063799999999999989e-02 2.135999999999999878e-03 4.797599999999999781e-02 7.773099999999999454e-02 1.217900000000000059e-02 -1.317800000000000082e-01 1.670089999999999908e-01 -3.578400000000000331e-02 1.484500000000000056e-02 -5.173699999999999827e-02 -1.889899999999999913e-02 -9.377599999999999825e-02 -5.777100000000000291e-02 1.502290000000000014e-01 9.061600000000000210e-02 -6.022099999999999675e-02 -2.407400000000000095e-01 6.986399999999999555e-02 -8.692000000000000073e-03 -2.086000000000000180e-03 -7.887999999999999179e-03 -2.886199999999999877e-02 -2.300000000000000070e-04 -8.218899999999999817e-02 -1.439120000000000121e-01 9.549199999999999355e-02 1.381300000000000062e-02 -2.967300000000000146e-02 1.283600000000000019e-01 -1.340469999999999995e-01 1.607510000000000050e-01 1.350919999999999899e-01 1.371410000000000129e-01 -8.252299999999999913e-02 -8.383100000000000274e-02 3.807699999999999974e-02 -5.105599999999999722e-02 1.028049999999999936e-01
-1.126599999999999963e-01 -1.288179999999999881e-01 -1.261480000000000101e-01 1.231209999999999943e-01 -6.230800000000000227e-02 -1.767200000000000021e-02 5.854999999999999788e-02 9.225000000000000561e-03 1.359800000000000071e-02 1.100499999999999916e-02 -1.151299999999999962e-01 4.725800000000000139e-02 1.114399999999999974e-01 1.392740000000000089e-01 3.786099999999999882e-02 -1.490569999999999951e-01 4.604599999999999665e-02 -3.979499999999999704e-02 -2.900949999999999918e-01 7.785899999999999765e-02 -1.606499999999999873e-01 8.820300000000000362e-02 -1.595299999999999843e-02 1.171549999999999953e-01 1.900419999999999887e-01 -3.496549999999999936e-01 2.142600000000000060e-02 4.556500000000000133e-02 -2.565899999999999848e-01 1.918239999999999945e-01 -6.163099999999999828e-02 2.074930000000000108e-01 -4.185889999999999889e-01 3.492680000000000229e-01 3.163900000000000046e-02 1.660149999999999959e-01 8.805499999999999439e-02 -2.076290000000000080e-01 -7.312299999999999356e-02 -3.257800000000000279e-02 4.650800000000000073e-02 1.787380000000000080e-01 -7.914599999999999413e-02 2.788200000000000123e-01 7.675999999999999664e-03 -3.400830000000000242e-01 2.992190000000000127e-01 5.442600000000000215e-02
1.530300000000000063e-02 8.788999999999999937e-03 1.058960000000000040e-01 -3.957299999999999707e-02 -1.899999999999999953e-02 -2.099699999999999830e-02 -1.320479999999999987e-01 -1.537949999999999873e-01 1.655600000000000127e-02 2.484700000000000103e-02 -4.401999999999999663e-03 -5.878699999999999898e-02 -2.871599999999999847e-02 -4.559200000000000058e-02 -1.235699999999999993e-02 4.343899999999999845e-02 3.373700000000000310e-02 -2.143400000000000166e-02 -1.768499999999999933e-02 -9.395999999999999838e-03 5.531099999999999905e-02 6.585599999999999787e-02 -1.250120000000000120e-01 -1.198049999999999948e-01 -6.220699999999999841e-02 -9.218099999999999905e-02 1.091369999999999979e-01 5.184400000000000119e-02 -3.050599999999999840e-02 -9.856499999999999984e-02 1.524010000000000087e-01 2.037529999999999897e-01 1.865299999999999944e-02 -6.864999999999999575e-03 1.066389999999999977e-01 -9.015299999999999703e-02 -5.190000000000000169e-03 -1.135729999999999934e-01 1.224210000000000020e-01 6.204300000000000093e-02 6.386000000000000010e-02 2.225399999999999948e-02 -3.239899999999999725e-02 2.577070000000000194e-01 1.848990000000000078e-01 -9.104900000000000493e-02 -8.102600000000000080e-02 -2.130289999999999961e-01
-4.739000000000000157e-02 -5.716099999999999653e-02 7.081300000000000094e-02 3.153000000000000247e-02 -7.871899999999999731e-02 1.470549999999999913e-01 5.151700000000000029e-02 1.180149999999999949e-01 -1.315979999999999928e-01 6.216000000000000171e-03 4.878199999999999897e-02 -5.755899999999999905e-02 5.426899999999999780e-02 -5.335199999999999665e-02 -1.018699999999999987e-02 1.934400000000000008e-02 7.382400000000000073e-02 4.630000000000000088e-02 -1.104160000000000003e-01 7.703200000000000325e-02 -4.578800000000000231e-02 4.529099999999999793e-02 -9.264999999999999625e-02 -5.007899999999999852e-02 -3.095200000000000035e-02 -1.981930000000000081e-01 2.245240000000000014e-01 -4.669000000000000233e-02 -1.069599999999999995e-01 2.579299999999999995e-02 2.043199999999999877e-02 1.961559999999999970e-01 -1.443000000000000055e-03 -3.952999999999999917e-03 1.042310000000000042e-01 -6.451099999999999890e-02 3.090100000000000138e-02 -2.417519999999999947e-01 -9.317799999999999694e-02 -4.664299999999999696e-02 -8.639800000000000257e-02 2.174799999999999997e-02 5.358600000000000169e-02 1.759930000000000105e-01 -1.767799999999999927e-02 -2.704300000000000107e-02 1.211499999999999938e-01 -6.421000000000000318e-02
-1.999999860843925009e-06 7.000000028765911328e-06 -2.000000038475377595e-06 -1.999999883957984960e-06 6.000000016964292163e-06 -4.000000032574567794e-06 -3.000000079719920028e-06 -3.999999933247888744e-06 1.000000027848679526e-06 -2.000000056605860333e-06 -2.999999941730035854e-06 3.000000020532722886e-06 2.000000120287453681e-06 5.999999953531654928e-06 -1.000000038235153168e-06 1.000000097173394198e-06 4.999999962013802461e-06 -3.000000030919196739e-06 3.999999779708857280e-06 -1.100000006933344454e-05 2.000000059248324879e-06 9.999998999963122458e-07 -5.000000014382956125e-06 1.000000028088903787e-06 -5.900000019198819399e-05 -1.399999841970510250e-05 6.500000016610497130e-05 2.999999596683241220e-06 -2.099999996643833085e-05 1.600000011967157200e-05 -9.999998793351733118e-06 5.600000049787815930e-05 4.999999968370610242e-05 -7.199999911034454640e-05 4.700000119489473920e-05 -4.500000017544753640e-05 6.199999896128244239e-05 -5.400000102156112957e-05 4.000000023090466769e-05 1.399999823531228607e-05 -8.400000053770754203e-05 -4.299999952414400696e-05 1.500000079908606659e-05 4.099999956002485675e-05 -2.300000026316040752e-05 4.900000052926478146e-05 2.999999867565005912e-05 -5.600000024636647754e-05
-8.129000000000000808e-03 6.018799999999999845e-02 3.838300000000000045e-02 1.782500000000000057e-02 1.417599999999999937e-02 -4.387100000000000027e-02 -9.973100000000000021e-02 -2.039799999999999947e-02 6.365700000000000525e-02 -1.417700000000000037e-02 9.785000000000000295e-03 3.357600000000000168e-02 1.077520000000000006e-01 -3.846800000000000219e-02 -1.106479999999999964e-01 4.574399999999999994e-02 3.158799999999999802e-02 5.962000000000000285e-03 -1.588799999999999935e-02 1.223600000000000035e-02 9.886999999999999955e-03 2.380200000000000024e-02 -2.628300000000000081e-02 -1.115900000000000052e-02 -2.166119999999999990e-01 -1.538879999999999970e-01 -1.237850000000000061e-01 -4.113000000000000336e-03 6.876100000000000267e-02 1.650739999999999985e-01 4.077900000000000275e-02 2.618219999999999992e-01 -6.603799999999999948e-02 -2.734300000000000064e-01 3.385099999999999915e-02 3.891499999999999820e-02 1.308590000000000031e-01 2.284200000000000119e-02 -2.264800000000000146e-02 1.034879999999999967e-01 -1.208859999999999935e-01 4.354700000000000237e-02 2.495299999999999949e-02 -1.220689999999999970e-01 -7.556499999999999329e-02 1.368790000000000007e-01 -3.325700000000000184e-02 5.471299999999999775e-02
-1.108309999999999990e-01 4.412800000000000056e-02 4.311199999999999755e-02 6.244100000000000344e-02 -6.756199999999999706e-02 5.824300000000000310e-02 -4.156200000000000172e-02 1.087100000000000045e-02 -2.259099999999999997e-02 3.520000000000000125e-03 5.869800000000000018e-02 3.880800000000000222e-02 6.825599999999999723e-02 2.364099999999999882e-02 1.074579999999999980e-01 7.815600000000000325e-02 -4.048999999999999821e-02 -1.125590000000000063e-01 2.670000000000000151e-02 -9.595399999999999763e-02 -1.105629999999999946e-01 -9.846599999999999797e-02 4.682000000000000051e-02 4.031900000000000067e-02 -1.072779999999999984e-01 1.887350000000000139e-01 -9.034000000000000363e-02 -2.077999999999999986e-03 -2.243999999999999901e-03 1.763979999999999992e-01 -5.969000000000000000e-02 -1.586600000000000163e-02 -4.300299999999999956e-02 6.357300000000000451e-02 -8.075200000000000433e-02 5.070199999999999707e-02 1.874830000000000108e-01 3.105099999999999874e-02 -1.214559999999999945e-01 -9.221899999999999542e-02 1.267520000000000036e-01 -1.073080000000000006e-01 -5.334599999999999759e-02 -1.594579999999999886e-01 3.031999999999999973e-03 7.534100000000000519e-02 -6.837000000000000022e-02 8.974799999999999445e-02
-1.346910000000000052e-01 1.149700000000000027e-02 -1.062170000000000059e-01 -7.873499999999999943e-02 -6.088600000000000262e-02 -1.822899999999999868e-02 -1.098999999999999977e-02 1.116550000000000042e-01 -1.042450000000000043e-01 -1.105710000000000026e-01 3.900599999999999901e-02 9.474000000000000477e-02 5.243099999999999844e-02 -7.688599999999999601e-02 -9.350999999999999937e-03 -7.611999999999999322e-02 -1.089090000000000058e-01 1.361709999999999865e-01 1.086229999999999973e-01 6.379999999999999560e-02 -2.718900000000000136e-02 6.010999999999999677e-02 5.376299999999999829e-02 -5.641000000000000181e-03 -1.272700000000000047e-02 -6.810800000000000187e-02 7.993799999999999517e-02 -2.735100000000000031e-02 -2.680300000000000044e-02 5.618999999999999689e-02 -3.336000000000000076e-02 9.215600000000000180e-02 6.037700000000000011e-02 -3.769999999999999914e-03 1.115359999999999963e-01 -9.589000000000000301e-02 5.476600000000000218e-02 -2.269369999999999998e-01 1.288479999999999903e-01 5.162300000000000222e-02 -1.121400000000000036e-01 -1.074000000000000085e-03 9.621499999999999497e-02 8.590000000000000413e-02 2.137500000000000164e-02 6.454600000000000615e-02 1.113559999999999967e-01 -2.098049999999999915e-01
-3.408100000000000018e-02 -6.715400000000000535e-02 -8.981000000000000094e-02 -7.990999999999999492e-02 1.387879999999999947e-01 9.347800000000000553e-02 -1.057889999999999942e-01 2.050000000000000086e-02 -2.259800000000000003e-02 -1.332999999999999984e-03 -3.631999999999999812e-02 9.529999999999999626e-04 -1.563200000000000006e-02 -2.237600000000000006e-02 3.830999999999999683e-02 8.266400000000000137e-02 1.114119999999999971e-01 1.665399999999999936e-01 7.247599999999999876e-02 -4.248000000000000040e-03 -5.299399999999999944e-02 7.568900000000000627e-02 -2.331799999999999845e-02 -5.073199999999999932e-02 4.716499999999999859e-02 -3.914200000000000318e-02 -1.742779999999999885e-01 2.008830000000000060e-01 -2.209000000000000026e-03 4.568599999999999745e-02 1.164520000000000000e-01 -1.558849999999999958e-01 -1.375540000000000096e-01 -1.190899999999999945e-02 -8.365300000000000513e-02 1.582000000000000073e-03 -1.306519999999999904e-01 2.282480000000000064e-01 3.831799999999999790e-02 -1.486500000000000044e-01 -9.995300000000000018e-02 1.323560000000000014e-01 -8.296099999999999308e-02 -3.047599999999999962e-02 -1.461850000000000094e-01 1.558799999999999943e-02 6.578599999999999726e-02 1.569290000000000129e-01
-1.217219999999999969e-01 1.426099999999999868e-01 6.855600000000000582e-02 -5.600399999999999823e-02 1.069520000000000054e-01 -1.859799999999999995e-02 3.418000000000000031e-03 -1.091410000000000019e-01 2.653099999999999903e-02 1.148350000000000065e-01 2.451800000000000160e-02 -2.807300000000000073e-02 -4.956399999999999695e-02 5.979199999999999793e-02 -9.005199999999999316e-02 1.427130000000000065e-01 1.232690000000000036e-01 -1.415170000000000039e-01 -3.396999999999999846e-03 -7.387000000000000510e-02 4.991799999999999710e-02 1.122969999999999940e-01 -1.647889999999999910e-01 -4.658500000000000141e-02 1.144749999999999934e-01 -5.345099999999999851e-02 -5.956000000000000356e-03 -3.840000000000000097e-03 -5.393499999999999683e-02 3.150399999999999728e-02 -1.378630000000000133e-01 6.263599999999999723e-02 -4.875199999999999673e-02 9.858899999999999608e-02 -2.648000000000000007e-02 5.347600000000000270e-02 -1.278829999999999967e-01 -1.065860000000000002e-01 2.338700000000000154e-02 -7.656100000000000405e-02 -5.186299999999999938e-02 1.998179999999999956e-01 9.405800000000000272e-02 8.337300000000000266e-02 1.413700000000000026e-02 -1.035520000000000052e-01 3.696599999999999886e-02 -8.779399999999999704e-02
6.150000000000000085e-03 6.406900000000000095e-02 -1.071529999999999982e-01 1.462410000000000099e-01 1.698000000000000074e-03 -3.163300000000000139e-02 1.466129999999999933e-01 -1.040880000000000000e-01 -7.223899999999999766e-02 -2.962000000000000050e-02 -9.981000000000000288e-03 3.629199999999999787e-02 -1.000909999999999994e-01 2.831099999999999936e-02 8.493100000000000649e-02 -1.764149999999999885e-01 -9.313999999999999363e-03 1.239040000000000002e-01 2.265199999999999853e-02 1.564899999999999972e-02 -7.435999999999999902e-03 2.057999999999999934e-03 9.492200000000000637e-02 -1.499699999999999991e-02 -1.683700000000000127e-02 -3.648200000000000054e-02 -1.131000000000000061e-02 7.562099999999999378e-02 -3.966100000000000181e-02 2.813500000000000029e-02 -5.402200000000000057e-02 7.189800000000000357e-02 3.797199999999999881e-02 -3.708899999999999697e-02 4.009499999999999870e-02 -1.174000000000000044e-02 6.712799999999999323e-02 -3.827699999999999853e-02 9.649099999999999344e-02 -1.415549999999999864e-01 -1.760539999999999883e-01 -7.063899999999999346e-02 1.267199999999999924e-02 -4.634000000000000098e-03 -3.934100000000000097e-02 7.649400000000000643e-02 1.018489999999999951e-01 -4.123899999999999788e-02
2.767299999999999968e-02 -1.467729999999999868e-01 2.121210000000000040e-01 2.724499999999999839e-02 -1.767900000000000027e-02 8.443499999999999617e-02 1.000859999999999944e-01 1.617959999999999954e-01 -1.413099999999999946e-02 1.319510000000000127e-01 1.906160000000000077e-01 4.873899999999999760e-02 -8.348600000000000465e-02 -1.278729999999999867e-01 -1.762950000000000073e-01 8.143899999999999750e-02 -1.415240000000000109e-01 9.689300000000000690e-02 -4.404000000000000276e-02 6.269900000000000473e-02 1.717999999999999909e-03 -9.955500000000000460e-02 4.020000000000000136e-04 -1.153340000000000060e-01 1.661990000000000134e-01 -2.322879999999999945e-01 4.682299999999999657e-02 -4.503499999999999864e-02 -2.635080000000000200e-01 -1.238619999999999999e-01 3.419510000000000050e-01 5.514700000000000157e-02 -1.712199999999999833e-02 1.674869999999999970e-01 1.836150000000000004e-01 -2.765489999999999893e-01 -2.062279999999999947e-01 6.424399999999999555e-02 1.485609999999999986e-01 8.378999999999999296e-03 -5.687600000000000294e-02 1.161799999999999986e-02 -3.761260000000000159e-01 1.494260000000000033e-01 7.575999999999999401e-02 -1.979410000000000058e-01 1.185749999999999998e-01 -3.374999999999999962e-03
1.303799999999999924e-02 8.691100000000000214e-02 -7.507800000000000584e-02 -1.250489999999999935e-01 -6.544999999999999429e-02 9.583700000000000552e-02 -2.329300000000000120e-02 1.203599999999999948e-01 -2.039420000000000122e-01 -1.341229999999999922e-01 1.780809999999999893e-01 3.446199999999999958e-02 8.741000000000000159e-02 -1.089480000000000032e-01 -1.511400000000000070e-02 7.119699999999999640e-02 -2.230969999999999898e-01 1.405710000000000015e-01 8.750399999999999845e-02 4.735999999999999759e-03 -6.816200000000000037e-02 3.303299999999999986e-02 -4.836599999999999927e-02 1.214169999999999972e-01 2.849999999999999886e-04 -1.362250000000000127e-01 -4.259000000000000286e-02 2.003199999999999981e-01 4.198600000000000249e-02 7.760000000000000404e-03 1.253350000000000020e-01 6.347700000000000564e-02 1.179889999999999967e-01 -3.003199999999999967e-02 -9.496899999999999786e-02 -4.967200000000000087e-02 -9.990000000000001049e-04 2.414900000000000033e-02 5.873300000000000048e-02 -1.588620000000000032e-01 1.557580000000000076e-01 -1.302250000000000074e-01 -1.022969999999999990e-01 -1.651299999999999990e-02 6.285799999999999721e-02 -4.346799999999999969e-02 1.811000000000000110e-02 -5.484499999999999792e-02
1.244100000000000067e-02 -8.083400000000000307e-02 -4.929100000000000148e-02 2.096999999999999906e-03 -4.856900000000000106e-02 4.287699999999999845e-02 -3.037199999999999969e-02 8.875600000000000156e-02 -4.243199999999999750e-02 -9.252100000000000601e-02 -7.641900000000000082e-02 8.378599999999999937e-02 -7.754900000000000682e-02 -9.209100000000000619e-02 -9.879499999999999393e-02 5.750199999999999756e-02 -6.054999999999999966e-02 1.509709999999999941e-01 4.495299999999999990e-02 2.153120000000000034e-01 -1.075050000000000033e-01 3.018500000000000003e-02 1.295499999999999950e-02 1.497399999999999946e-02 1.978300000000000058e-01 2.052569999999999950e-01 9.258000000000000604e-03 -2.661200000000000232e-01 -1.625400000000000109e-02 -1.626789999999999903e-01 -1.666980000000000128e-01 -1.964720000000000077e-01 1.106479999999999964e-01 -5.704999999999999655e-02 3.279100000000000070e-02 1.005189999999999972e-01 -5.402200000000000057e-02 1.000339999999999979e-01 -1.641799999999999926e-01 2.073280000000000123e-01 2.333400000000000057e-02 1.175230000000000025e-01 9.544800000000000506e-02 -3.855900000000000299e-02 -2.259000000000000157e-03 9.654799999999999494e-02 -6.869000000000000106e-02 -3.412999999999999801e-03
4.511400000000000132e-02 2.147200000000000150e-02 2.921299999999999938e-02 -5.174200000000000327e-02 -3.355999999999999955e-02 2.044999999999999943e-03 1.438799999999999975e-02 -4.671199999999999658e-02 6.287199999999999733e-02 4.133000000000000389e-03 -1.482539999999999969e-01 -5.063000000000000139e-02 -5.098899999999999960e-02 7.056099999999999872e-02 1.193100000000000063e-02 -5.178800000000000070e-02 6.138000000000000227e-03 8.586000000000000576e-02 1.172639999999999932e-01 7.003299999999999803e-02 -3.590600000000000042e-02 -9.999800000000000355e-02 1.554499999999999979e-02 -4.083599999999999730e-02 1.501389999999999947e-01 -1.831849999999999867e-01 -3.074199999999999849e-02 7.968100000000000183e-02 -6.897200000000000553e-02 1.564600000000000019e-02 2.272150000000000003e-01 -4.986600000000000060e-02 -1.898070000000000035e-01 1.376789999999999958e-01 1.384000000000000031e-03 -5.457399999999999751e-02 -7.733800000000000396e-02 2.288820000000000021e-01 4.484699999999999798e-02 -1.125590000000000063e-01 7.069799999999999696e-02 2.893899999999999945e-02 -1.780309999999999948e-01 1.953200000000000075e-02 5.073099999999999832e-02 -1.531689999999999996e-01 2.630299999999999999e-02 7.041100000000000136e-02
-3.000000036273831559e-06 -1.999999921756983545e-06 3.000000015888177809e-06 -6.000000057913585002e-06 -2.999999866883512340e-06 2.000000025933968915e-06 -5.000000057913586106e-06 -2.999999887122131335e-06 2.000000024532833695e-06 -3.000000016035212564e-06 -9.999999217569838017e-07 3.000000010045791349e-06 -4.000000036273831725e-06 -1.999999901518364550e-06 3.000000017289312605e-06 -2.000000034872696596e-06 -1.999999936153216503e-06 4.000000014487042332e-06 -3.000000037674966779e-06 -1.999999927599369581e-06 2.000000015888177642e-06 -5.000000057913586106e-06 -2.999999887122131335e-06 2.000000024532833695e-06 2.700000048494844175e-05 2.499999936592148763e-05 -1.500000018389030266e-05 1.199999899211676522e-05 -4.800000039476546611e-05 -2.599999973637908280e-05 8.999999285265381421e-06 -3.400000029315289861e-05 -1.899999981396908557e-05 2.700000038593489130e-05 1.899999945939966745e-05 9.999998511640158037e-07 2.000000581471094108e-06 2.700000010558240853e-05 2.499999983945330522e-05 -3.300000055142452272e-05 -2.599999943728851346e-05 -1.799999980186050167e-05 3.000000268550906195e-06 1.499999979322448570e-05 -2.500000009183919953e-05 -1.499999913223028389e-05 3.900000063075290227e-05 5.599999979316396567e-05
9.978499999999999870e-02 2.389700000000000157e-02 6.003800000000000109e-02 -9.934000000000000122e-03 9.662199999999999955e-02 -1.303489999999999926e-01 1.190269999999999939e-01 -4.296900000000000025e-02 7.069799999999999696e-02 -5.290000000000000258e-02 -4.470000000000000015e-03 -5.817300000000000249e-02 9.416900000000000270e-02 6.074000000000000232e-02 8.851699999999999846e-02 -6.063299999999999940e-02 -9.838399999999999923e-02 5.961199999999999832e-02 -3.643099999999999811e-02 2.252000000000000095e-03 9.269999999999999811e-04 1.795799999999999827e-02 1.714800000000000005e-02 -8.229999999999999469e-03 5.850500000000000145e-02 -1.678910000000000124e-01 -3.533200000000000229e-02 2.059000000000000066e-02 -7.498799999999999910e-02 1.317619999999999902e-01 2.689349999999999796e-01 7.336700000000000166e-02 -1.220590000000000008e-01 -6.990000000000000380e-02 -6.507799999999999696e-02 -1.354619999999999991e-01 -1.301900000000000002e-01 1.532030000000000058e-01 -9.154600000000000237e-02 -6.084799999999999931e-02 6.008999999999999585e-03 1.004950000000000010e-01 -2.638980000000000214e-01 -1.747999999999999988e-03 -7.730299999999999672e-02 5.766000000000000292e-03 2.228799999999999878e-02 1.464070000000000094e-01