6.552543189067917773e+00 -4.120644797607802785e-21 0.000000000000000000e+00 -3.276324023898015803e+00 5.674638586820105246e+00 0.000000000000000000e+00 0.000000000000000000e+00 0.000000000000000000e+00 8.439014683999999988e+00
6.636242992999999757e+00 0.000000000000000000e+00 0.000000000000000000e+00 -3.285504834999999790e+00 5.819797949999999886e+00 0.000000000000000000e+00 4.223492100000000166e-02 1.400666319999999965e-01 8.241493672000000714e+00
6.674093996999999945e+00 0.000000000000000000e+00 0.000000000000000000e+00 -3.394336855000000153e+00 5.715723205999999834e+00 0.000000000000000000e+00 -3.189026300000000202e-02 -1.686485500000000151e-02 8.341310525999999115e+00
6.651065400000000238e+00 0.000000000000000000e+00 0.000000000000000000e+00 -3.280577379999999987e+00 5.683961387000000087e+00 0.000000000000000000e+00 -1.122916139999999979e-01 1.420447099999999976e-02 8.666044431999999631e+00
6.422764663999999790e+00 0.000000000000000000e+00 0.000000000000000000e+00 -3.097059969000000024e+00 5.757403306999999693e+00 0.000000000000000000e+00 -1.387224410000000019e-01 1.754161730000000086e-01 8.566147172000000865e+00
6.367013404999999793e+00 0.000000000000000000e+00 0.000000000000000000e+00 -3.207307521999999800e+00 5.518743845000000370e+00 0.000000000000000000e+00 -2.282659500000000161e-02 2.557612899999999745e-01 8.404240829000000801e+00
6.375962304999999830e+00 0.000000000000000000e+00 0.000000000000000000e+00 -3.161504757999999971e+00 5.779738505000000082e+00 0.000000000000000000e+00 -1.639205410000000029e-01 -5.686792100000000183e-02 8.688406717999999529e+00
6.495579913000000261e+00 0.000000000000000000e+00 0.000000000000000000e+00 -3.204490923999999907e+00 5.693119327999999868e+00 0.000000000000000000e+00 -1.319581069999999912e-01 5.667615100000000100e-02 8.353774184000000602e+00
6.737885600000000252e+00 0.000000000000000000e+00 0.000000000000000000e+00 -3.339284836000000034e+00 5.631559702999999750e+00 0.000000000000000000e+00 -5.409589900000000284e-02 1.523424859999999992e-01 8.487884446000000693e+00
6.679188926000000137e+00 0.000000000000000000e+00 0.000000000000000000e+00 -3.365975079000000036e+00 5.523337052999999663e+00 0.000000000000000000e+00 -9.602127600000000263e-02 -2.088545310000000099e-01 8.211778874000000172e+00
6.685276956000000048e+00 0.000000000000000000e+00 0.000000000000000000e+00 -3.462793287999999858e+00 5.655763990999999713e+00 0.000000000000000000e+00 -1.516690780000000127e-01 -9.088496699999999706e-02 8.613743163000000536e+00
6.226466809999999796e+00 1.166053759389696247e-24 0.000000000000000000e+00 -3.113234188908962530e+00 5.392277978999995725e+00 -4.135903062765138374e-25 4.601822412669377101e-09 8.624063716951392892e-09 9.973694240000000377e+00
6.361461264999999976e+00 0.000000000000000000e+00 0.000000000000000000e+00 -3.102891633000000038e+00 5.426897334000000406e+00 0.000000000000000000e+00 -5.895288499999999654e-02 2.567199929999999797e-01 1.015497609800000056e+01
6.286096605000000004e+00 0.000000000000000000e+00 0.000000000000000000e+00 -3.203136356999999990e+00 5.408219824999999759e+00 0.000000000000000000e+00 -3.844363800000000220e-02 -2.121751849999999884e-01 1.017092990099999916e+01
6.337604406999999718e+00 0.000000000000000000e+00 0.000000000000000000e+00 -3.212689593999999982e+00 5.286913184000000321e+00 0.000000000000000000e+00 2.090840710000000102e-01 -1.876555880000000120e-01 9.750196903999999165e+00
6.094637796999999857e+00 0.000000000000000000e+00 0.000000000000000000e+00 -3.042816571999999997e+00 5.266521909999999806e+00 0.000000000000000000e+00 2.553978610000000038e-01 2.136981699999999929e-01 1.004232666499999915e+01
6.149260166000000360e+00 0.000000000000000000e+00 0.000000000000000000e+00 -2.982851676000000118e+00 5.548271043999999819e+00 0.000000000000000000e+00 -1.154578359999999942e-01 -1.081238169999999971e-01 9.908387013000000465e+00
6.293802171000000278e+00 0.000000000000000000e+00 0.000000000000000000e+00 -3.180023258999999936e+00 5.234661318999999757e+00 0.000000000000000000e+00 -2.007480510000000107e-01 2.923051240000000273e-01 1.010271131200000028e+01
6.114360783000000410e+00 0.000000000000000000e+00 0.000000000000000000e+00 -2.933682731000000210e+00 5.243330070999999926e+00 0.000000000000000000e+00 1.451633679999999871e-01 1.346072869999999921e-01 9.953647151000000193e+00
6.319315106000000348e+00 0.000000000000000000e+00 0.000000000000000000e+00 -3.301532455999999893e+00 5.247984771999999687e+00 0.000000000000000000e+00 1.615565770000000068e-01 -2.712868429999999997e-01 1.013954445499999935e+01
6.114690489000000007e+00 0.000000000000000000e+00 0.000000000000000000e+00 -3.109938221999999808e+00 5.383935855999999909e+00 0.000000000000000000e+00 -1.696916400000000047e-01 2.515187269999999975e-01 9.774751217000000381e+00
6.059317936000000238e+00 0.000000000000000000e+00 0.000000000000000000e+00 -3.152330880000000057e+00 5.279509495000000108e+00 0.000000000000000000e+00 2.894118540000000239e-01 2.459730569999999950e-01 1.011623223299999985e+01
