1.638105693898646242e+00 9.457674583727412321e-01 2.109750000000000014e+00 1.638105693898646242e+00 9.457674583727412321e-01 6.329259999999999664e+00 -4.722451961953678430e-05 3.783079999824197071e+00 2.109750000000000014e+00 -4.722451961953678430e-05 3.783079999824197071e+00 6.329259999999999664e+00 4.914385693955748202e+00 9.457623754110118242e-01 2.109750000000000014e+00 4.914385693955748202e+00 9.457623754110118242e-01 6.329259999999999664e+00 3.276222775491952621e+00 3.783084916816937149e+00 2.109750000000000014e+00 3.276222775491952621e+00 3.783084916816937149e+00 6.329259999999999664e+00 -1.861221427940685120e-05 1.891529999934863815e+00 0.000000000000000000e+00 -1.861221427940685120e-05 1.891529999934863815e+00 4.219509999999999650e+00 -1.638181530632545346e+00 4.728842541340789296e+00 0.000000000000000000e+00 -1.638181530632545346e+00 4.728842541340789296e+00 4.219509999999999650e+00 3.276251387842822993e+00 1.891524916927604050e+00 0.000000000000000000e+00 3.276251387842822993e+00 1.891524916927604050e+00 4.219509999999999650e+00 1.638088469379026524e+00 4.728847458333529374e+00 0.000000000000000000e+00 1.638088469379026524e+00 4.728847458333529374e+00 4.219509999999999650e+00 1.638105693898646242e+00 9.457674583727412321e-01 0.000000000000000000e+00 1.638105693898646242e+00 9.457674583727412321e-01 4.219509999999999650e+00 -4.722451961953678430e-05 3.783079999824197071e+00 0.000000000000000000e+00 -4.722451961953678430e-05 3.783079999824197071e+00 4.219509999999999650e+00 4.914385693955748202e+00 9.457623754110118242e-01 0.000000000000000000e+00 4.914385693955748202e+00 9.457623754110118242e-01 4.219509999999999650e+00 3.276222775491952621e+00 3.783084916816937149e+00 0.000000000000000000e+00 3.276222775491952621e+00 3.783084916816937149e+00 4.219509999999999650e+00 -1.861221427940685120e-05 1.891529999934863815e+00 2.109750000000000014e+00 -1.861221427940685120e-05 1.891529999934863815e+00 6.329259999999999664e+00 -1.638181530632545346e+00 4.728842541340789296e+00 2.109750000000000014e+00 -1.638181530632545346e+00 4.728842541340789296e+00 6.329259999999999664e+00 3.276251387842822993e+00 1.891524916927604050e+00 2.109750000000000014e+00 3.276251387842822993e+00 1.891524916927604050e+00 6.329259999999999664e+00 1.638088469379026524e+00 4.728847458333529374e+00 2.109750000000000014e+00 1.638088469379026524e+00 4.728847458333529374e+00 6.329259999999999664e+00
1.674209999999999976e+00 9.972499999999999698e-01 2.055499999999999883e+00 1.696150000000000047e+00 1.075010000000000021e+00 6.181119999999999948e+00 2.298000000000000043e-02 3.919449999999999878e+00 2.060000000000000053e+00 5.045999999999999791e-02 3.985050000000000203e+00 6.183849999999999625e+00 4.989799999999999791e+00 9.996699999999999475e-01 2.065519999999999801e+00 5.011899999999999800e+00 1.081509999999999971e+00 6.178399999999999892e+00 3.343640000000000168e+00 3.920879999999999921e+00 2.054040000000000088e+00 3.365380000000000038e+00 3.988360000000000127e+00 6.179630000000000400e+00 1.353000000000000036e-02 1.948499999999999899e+00 1.889999999999999970e-03 4.195000000000000118e-02 1.994520000000000071e+00 4.114309999999999690e+00 -1.585809999999999942e+00 4.993870000000000253e+00 8.239800000000000679e+00 -1.609539999999999971e+00 4.921100000000000030e+00 4.122560000000000002e+00 3.374179999999999957e+00 2.083590000000000053e+00 8.237759999999999749e+00 3.352899999999999991e+00 2.010510000000000019e+00 4.120540000000000092e+00 1.721149999999999958e+00 4.995809999999999640e+00 8.231559999999999988e+00 1.696909999999999918e+00 4.908140000000000391e+00 4.116950000000000109e+00 1.662039999999999962e+00 9.721300000000000496e-01 7.069999999999999896e-03 1.692499999999999893e+00 1.032299999999999995e+00 4.122460000000000235e+00 6.297999999999999432e-02 4.018609999999999793e+00 8.241189999999999571e+00 3.031999999999999973e-02 3.940859999999999808e+00 4.113129999999999953e+00 5.035820000000000185e+00 1.109960000000000058e+00 8.226160000000000139e+00 5.003199999999999648e+00 1.036419999999999897e+00 4.118800000000000239e+00 3.390629999999999811e+00 4.028660000000000352e+00 8.239039999999999253e+00 3.351379999999999804e+00 3.960690000000000044e+00 4.116780000000000328e+00 1.841999999999999887e-02 1.993509999999999893e+00 2.062059999999999782e+00 4.760999999999999954e-02 2.038149999999999906e+00 6.180290000000000283e+00 -1.627979999999999983e+00 4.882900000000000240e+00 2.063880000000000159e+00 -1.611329999999999929e+00 4.956470000000000375e+00 6.196259999999999657e+00 3.341629999999999878e+00 1.971840000000000037e+00 2.063289999999999846e+00 3.362460000000000004e+00 2.046629999999999949e+00 6.180170000000000385e+00 1.689580000000000082e+00 4.878910000000000302e+00 2.070819999999999883e+00 1.711410000000000098e+00 4.954710000000000392e+00 6.177270000000000039e+00
1.650069999999999926e+00 9.485500000000000043e-01 2.085700000000000109e+00 1.631729999999999903e+00 9.476200000000000179e-01 6.263849999999999696e+00 -6.235999999999999877e-02 3.813130000000000130e+00 2.088260000000000005e+00 -6.090999999999999887e-02 3.800009999999999888e+00 6.255139999999999922e+00 5.001140000000000363e+00 9.436600000000000543e-01 2.099470000000000169e+00 4.974990000000000023e+00 9.431699999999999529e-01 6.259439999999999671e+00 3.283269999999999911e+00 3.806909999999999794e+00 2.090430000000000010e+00 3.274420000000000108e+00 3.791469999999999896e+00 6.259509999999999685e+00 -5.181999999999999801e-02 1.888060000000000072e+00 8.340989999999999682e+00 -3.515999999999999681e-02 1.895240000000000036e+00 4.172690000000000232e+00 -1.723880000000000079e+00 4.771110000000000184e+00 1.663999999999999854e-02 -1.732930000000000081e+00 4.754850000000000243e+00 4.169760000000000133e+00 3.289779999999999927e+00 1.882479999999999931e+00 8.336180000000000589e+00 3.303539999999999921e+00 1.895240000000000036e+00 4.156959999999999766e+00 1.618400000000000061e+00 4.758759999999999657e+00 8.400000000000000348e-04 1.602559999999999985e+00 4.756759999999999877e+00 4.168580000000000396e+00 1.664120000000000044e+00 9.427200000000000024e-01 1.301000000000000073e-02 1.648239999999999927e+00 9.404900000000000482e-01 4.156049999999999578e+00 -8.018000000000000127e-02 3.793890000000000207e+00 8.330959999999999255e+00 -5.031000000000000055e-02 3.806280000000000108e+00 4.167880000000000251e+00 4.965250000000000163e+00 9.363799999999999901e-01 8.340120000000000644e+00 4.985879999999999868e+00 9.528100000000000458e-01 4.160429999999999851e+00 3.304370000000000029e+00 3.806439999999999824e+00 1.727000000000000063e-02 3.286459999999999937e+00 3.806950000000000056e+00 4.168289999999999829e+00 -3.128000000000000225e-02 1.904139999999999944e+00 2.086069999999999869e+00 -4.821999999999999897e-02 1.887340000000000018e+00 6.261989999999999945e+00 -1.724650000000000016e+00 4.759900000000000020e+00 2.084169999999999856e+00 -1.756480000000000041e+00 4.756899999999999906e+00 6.256800000000000139e+00 3.310259999999999980e+00 1.900539999999999896e+00 2.085609999999999964e+00 3.293000000000000149e+00 1.895469999999999988e+00 6.247779999999999667e+00 1.607839999999999936e+00 4.758390000000000342e+00 2.079309999999999992e+00 1.583239999999999981e+00 4.739080000000000403e+00 6.248540000000000205e+00
1.645769999999999955e+00 9.527600000000000513e-01 2.150020000000000042e+00 1.588240000000000096e+00 9.588299999999999601e-01 6.498400000000000176e+00 8.210000000000000284e-03 3.791329999999999867e+00 2.176489999999999814e+00 -4.934000000000000191e-02 3.803710000000000147e+00 6.481550000000000367e+00 4.978850000000000442e+00 9.486900000000000333e-01 2.171199999999999797e+00 4.922019999999999840e+00 9.653100000000000014e-01 6.495989999999999931e+00 3.329919999999999991e+00 3.793629999999999836e+00 2.164210000000000189e+00 3.268569999999999975e+00 3.802989999999999871e+00 6.497480000000000366e+00 3.759999999999999887e-03 1.885280000000000067e+00 9.669999999999999776e-03 -3.647000000000000242e-02 1.905869999999999953e+00 4.330350000000000144e+00 -1.734469999999999956e+00 4.752439999999999998e+00 8.663169999999999149e+00 -1.690430000000000099e+00 4.745309999999999917e+00 4.341599999999999682e+00 3.336980000000000057e+00 1.894060000000000077e+00 3.989999999999999623e-03 3.287220000000000031e+00 1.901909999999999989e+00 4.329769999999999897e+00 1.589110000000000023e+00 4.748330000000000162e+00 8.665139999999999176e+00 1.634959999999999969e+00 4.743750000000000355e+00 4.339389999999999858e+00 1.560119999999999951e+00 9.641399999999999970e-01 8.664400000000000546e+00 1.614190000000000014e+00 9.543800000000000061e-01 4.333099999999999952e+00 -8.264000000000000512e-02 3.805000000000000160e+00 8.666000000000000369e+00 -3.361999999999999711e-02 3.801419999999999799e+00 4.338149999999999729e+00 4.990850000000000009e+00 9.519300000000000539e-01 1.602999999999999911e-02 4.948789999999999800e+00 9.543399999999999661e-01 4.338219999999999743e+00 3.350020000000000220e+00 3.791339999999999932e+00 2.449999999999999921e-03 3.299529999999999852e+00 3.797979999999999912e+00 4.331909999999999705e+00 -1.464000000000000024e-02 1.896970000000000045e+00 2.163180000000000103e+00 -6.870999999999999330e-02 1.904709999999999903e+00 6.499509999999999899e+00 -1.658849999999999936e+00 4.746410000000000018e+00 2.172899999999999832e+00 -1.712960000000000038e+00 4.751999999999999780e+00 6.505560000000000009e+00 3.307500000000000107e+00 1.897699999999999942e+00 2.160519999999999996e+00 3.254999999999999893e+00 1.901170000000000027e+00 6.499500000000000277e+00 1.667359999999999953e+00 4.734390000000000320e+00 2.180229999999999890e+00 1.614829999999999988e+00 4.744049999999999656e+00 6.504249999999999865e+00
1.599169999999999980e+00 9.940900000000000292e-01 2.150399999999999867e+00 1.521879999999999900e+00 1.088379999999999903e+00 6.421979999999999578e+00 3.747000000000000330e-02 3.882779999999999898e+00 2.147200000000000220e+00 -3.107000000000000040e-02 3.964459999999999873e+00 6.410499999999999865e+00 4.808180000000000121e+00 1.019970000000000043e+00 2.142389999999999795e+00 4.727710000000000079e+00 1.078740000000000032e+00 6.432870000000000310e+00 3.255630000000000024e+00 3.885920000000000041e+00 2.144569999999999865e+00 3.190010000000000012e+00 3.972309999999999786e+00 6.407289999999999708e+00 4.068000000000000088e-02 1.917950000000000044e+00 1.090000000000000040e-03 -2.463999999999999871e-02 2.007200000000000095e+00 4.285309999999999953e+00 -1.642030000000000101e+00 4.977350000000000385e+00 8.564130000000000464e+00 -1.586310000000000109e+00 4.879150000000000098e+00 4.288009999999999877e+00 3.255700000000000038e+00 1.921070000000000055e+00 1.674000000000000141e-02 3.190500000000000114e+00 2.007639999999999869e+00 4.275879999999999903e+00 1.692369999999999930e+00 4.807599999999999874e+00 1.159999999999999920e-02 1.619769999999999932e+00 4.890480000000000160e+00 4.288689999999999891e+00 1.617930000000000090e+00 9.550600000000000200e-01 7.100000000000000191e-04 1.551900000000000057e+00 1.055199999999999916e+00 4.272619999999999862e+00 6.529000000000000081e-02 3.847910000000000164e+00 5.960000000000000020e-03 -1.449999999999999900e-03 3.926419999999999799e+00 4.294290000000000163e+00 4.835099999999999731e+00 9.589100000000000401e-01 2.619999999999999933e-03 4.766729999999999912e+00 1.049099999999999921e+00 4.274079999999999657e+00 3.129389999999999894e+00 4.011440000000000339e+00 8.564420000000000144e+00 3.210589999999999833e+00 3.920619999999999994e+00 4.297690000000000232e+00 6.420000000000000359e-03 1.960320000000000062e+00 2.144470000000000098e+00 -6.049000000000000210e-02 2.060099999999999820e+00 6.425600000000000200e+00 -1.547080000000000011e+00 4.848930000000000184e+00 2.130240000000000133e+00 -1.616600000000000037e+00 4.937070000000000292e+00 6.441200000000000259e+00 3.223529999999999784e+00 1.975970000000000004e+00 2.137259999999999938e+00 3.151879999999999793e+00 2.045119999999999827e+00 6.420049999999999812e+00 1.665429999999999966e+00 4.833079999999999821e+00 2.135790000000000077e+00 1.601269999999999971e+00 4.929210000000000313e+00 6.418140000000000178e+00
1.584009999999999918e+00 9.818299999999999805e-01 2.102030000000000065e+00 1.569949999999999957e+00 1.110360000000000014e+00 6.303020000000000067e+00 -2.965999999999999887e-02 3.751580000000000137e+00 2.101339999999999986e+00 -3.910000000000000281e-02 3.869920000000000027e+00 6.302520000000000344e+00 4.763910000000000089e+00 9.861100000000000421e-01 2.099079999999999835e+00 4.762819999999999609e+00 1.102349999999999941e+00 6.296509999999999607e+00 3.165639999999999787e+00 3.753429999999999822e+00 2.088099999999999845e+00 3.143190000000000150e+00 3.868230000000000057e+00 6.314169999999999838e+00 -2.077000000000000027e-02 2.091130000000000155e+00 8.402820000000000178e+00 -1.891999999999999932e-02 1.965780000000000083e+00 4.204500000000000348e+00 -1.605059999999999931e+00 4.588000000000000078e+00 1.257999999999999917e-02 -1.619010000000000060e+00 4.718160000000000132e+00 4.216359999999999886e+00 3.160639999999999894e+00 1.848540000000000072e+00 8.099999999999999561e-04 3.160060000000000091e+00 1.969209999999999905e+00 4.198570000000000135e+00 1.586940000000000017e+00 4.608600000000000030e+00 1.529999999999999893e-03 1.559900000000000064e+00 4.727219999999999978e+00 4.202259999999999884e+00 1.575010000000000021e+00 1.172719999999999985e+00 8.400850000000000151e+00 1.576889999999999903e+00 1.037469999999999892e+00 4.213530000000000442e+00 -2.096999999999999906e-02 3.676190000000000069e+00 9.499999999999999981e-04 -3.429999999999999716e-02 3.803230000000000111e+00 4.211409999999999876e+00 4.734740000000000393e+00 1.176010000000000000e+00 8.391030000000000655e+00 4.759439999999999671e+00 1.048079999999999901e+00 4.202219999999999622e+00 3.168559999999999821e+00 3.681550000000000100e+00 1.930000000000000075e-03 3.149649999999999839e+00 3.796629999999999949e+00 4.198470000000000368e+00 -1.039999999999999952e-02 1.902509999999999923e+00 2.095740000000000158e+00 -3.377999999999999753e-02 2.032010000000000094e+00 6.298829999999999707e+00 -1.617280000000000051e+00 4.663949999999999818e+00 2.099270000000000191e+00 -1.634260000000000046e+00 4.799430000000000085e+00 6.301739999999999675e+00 3.183590000000000142e+00 1.913480000000000070e+00 2.099660000000000082e+00 3.170269999999999921e+00 2.043870000000000076e+00 6.310810000000000031e+00 1.569229999999999903e+00 4.664810000000000123e+00 2.100200000000000067e+00 1.543979999999999908e+00 4.788520000000000110e+00 6.295320000000000249e+00
1.558969999999999967e+00 9.566700000000000204e-01 2.176950000000000163e+00 1.482359999999999900e+00 9.237600000000000255e-01 6.501520000000000188e+00 -3.277000000000000052e-02 3.843859999999999832e+00 2.181369999999999809e+00 -1.000400000000000039e-01 3.805359999999999854e+00 6.514499999999999957e+00 4.751610000000000333e+00 9.425400000000000444e-01 2.188089999999999868e+00 4.671359999999999957e+00 9.302300000000000013e-01 6.520480000000000054e+00 3.164930000000000021e+00 3.838870000000000005e+00 2.172449999999999992e+00 3.084820000000000118e+00 3.813359999999999861e+00 6.503269999999999662e+00 4.400000000000000265e-03 1.931759999999999922e+00 5.239999999999999866e-03 -6.365999999999999437e-02 1.909419999999999895e+00 4.350069999999999659e+00 -1.571600000000000108e+00 4.816690000000000360e+00 1.800000000000000113e-04 -1.670579999999999954e+00 4.784530000000000172e+00 4.353189999999999671e+00 3.043000000000000149e+00 1.860540000000000083e+00 8.686249999999999361e+00 3.117859999999999854e+00 1.897310000000000052e+00 4.337100000000000399e+00 1.451240000000000085e+00 4.768430000000000391e+00 8.674979999999999691e+00 1.520129999999999981e+00 4.795950000000000379e+00 4.337860000000000049e+00 1.426139999999999963e+00 8.982700000000000129e-01 8.681269999999999598e+00 1.519519999999999982e+00 9.232299999999999951e-01 4.334439999999999849e+00 -1.552499999999999991e-01 3.784359999999999946e+00 8.685579999999999856e+00 -6.518000000000000183e-02 3.825849999999999973e+00 4.344879999999999853e+00 4.625110000000000277e+00 9.069199999999999484e-01 8.686099999999999710e+00 4.707230000000000025e+00 9.284999999999999920e-01 4.351580000000000226e+00 3.041720000000000201e+00 3.797190000000000065e+00 8.687929999999999708e+00 3.123260000000000147e+00 3.822470000000000034e+00 4.340329999999999799e+00 -3.259000000000000091e-02 1.909990000000000077e+00 2.171089999999999964e+00 -1.137500000000000039e-01 1.883229999999999960e+00 6.516639999999999766e+00 -1.602649999999999908e+00 4.805279999999999774e+00 2.156130000000000102e+00 -1.694989999999999997e+00 4.770170000000000243e+00 6.519160000000000288e+00 3.161169999999999813e+00 1.916709999999999914e+00 2.168019999999999836e+00 3.067299999999999915e+00 1.877459999999999907e+00 6.504540000000000433e+00 1.573329999999999895e+00 4.792239999999999611e+00 2.171479999999999855e+00 1.492590000000000083e+00 4.773130000000000095e+00 6.517739999999999867e+00
1.610659999999999981e+00 9.571800000000000308e-01 2.093389999999999862e+00 1.525530000000000053e+00 9.990900000000000336e-01 6.258759999999999657e+00 -1.046000000000000055e-02 3.809369999999999923e+00 2.100789999999999935e+00 -7.008000000000000340e-02 3.837880000000000180e+00 6.265380000000000393e+00 4.845989999999999576e+00 9.656599999999999628e-01 2.086479999999999890e+00 4.780879999999999797e+00 1.000629999999999908e+00 6.280240000000000045e+00 3.251119999999999788e+00 3.819799999999999862e+00 2.085869999999999891e+00 3.169550000000000090e+00 3.838360000000000216e+00 6.266600000000000392e+00 -1.276799999999999879e-01 1.961019999999999985e+00 8.347120000000000317e+00 -5.267000000000000154e-02 1.928230000000000111e+00 4.177260000000000417e+00 -1.603089999999999904e+00 4.739539999999999864e+00 9.499999999999999764e-03 -1.656279999999999974e+00 4.770290000000000141e+00 4.178449999999999775e+00 3.138590000000000213e+00 1.958090000000000108e+00 8.343080000000000496e+00 3.196829999999999838e+00 1.926309999999999967e+00 4.176249999999999574e+00 1.659000000000000030e+00 4.745250000000000412e+00 4.499999999999999877e-04 1.596260000000000012e+00 4.770419999999999661e+00 4.181600000000000428e+00 1.490439999999999987e+00 1.008480000000000043e+00 8.349500000000000810e+00 1.573039999999999994e+00 9.845699999999999452e-01 4.167139999999999844e+00 2.909000000000000127e-02 3.791700000000000070e+00 6.570000000000000319e-03 -5.109000000000000347e-02 3.835659999999999847e+00 4.172109999999999985e+00 4.745820000000000149e+00 1.012170000000000014e+00 8.350310000000000343e+00 4.813589999999999591e+00 9.769200000000000106e-01 4.174190000000000289e+00 3.141859999999999875e+00 3.865499999999999936e+00 8.343569999999999709e+00 3.200919999999999987e+00 3.816629999999999967e+00 4.165269999999999584e+00 -2.264000000000000040e-02 1.909040000000000070e+00 2.092729999999999979e+00 -8.470999999999999364e-02 1.939939999999999998e+00 6.265590000000000437e+00 -1.638230000000000075e+00 4.760060000000000180e+00 2.089399999999999924e+00 -1.682609999999999939e+00 4.773579999999999934e+00 6.275890000000000413e+00 3.229239999999999888e+00 1.909799999999999942e+00 2.086279999999999912e+00 3.161420000000000119e+00 1.941060000000000008e+00 6.265810000000000102e+00 1.620179999999999954e+00 4.763659999999999783e+00 2.080719999999999903e+00 1.557129999999999903e+00 4.784760000000000346e+00 6.264420000000000321e+00
1.678509999999999946e+00 9.849299999999999722e-01 2.122069999999999901e+00 1.644249999999999989e+00 1.055609999999999937e+00 6.362040000000000362e+00 -8.300000000000000086e-04 3.792450000000000099e+00 2.115159999999999929e+00 -3.178000000000000269e-02 3.861899999999999888e+00 6.359309999999999796e+00 5.041229999999999656e+00 9.626400000000000512e-01 2.118590000000000195e+00 5.012159999999999727e+00 1.053169999999999940e+00 6.374200000000000088e+00 3.369940000000000158e+00 3.785070000000000157e+00 2.116909999999999847e+00 3.352539999999999853e+00 3.865040000000000031e+00 6.367110000000000269e+00 -4.592000000000000248e-02 2.038019999999999943e+00 8.487190000000000012e+00 -1.660999999999999976e-02 1.953869999999999996e+00 4.243759999999999977e+00 -1.659429999999999961e+00 4.690570000000000128e+00 4.199999999999999740e-03 -1.686579999999999968e+00 4.768460000000000143e+00 4.243369999999999642e+00 3.329019999999999868e+00 2.022479999999999833e+00 8.483729999999999549e+00 3.360129999999999839e+00 1.967109999999999914e+00 4.255040000000000155e+00 1.710960000000000036e+00 4.683629999999999960e+00 5.629999999999999588e-03 1.676010000000000000e+00 4.772789999999999644e+00 4.249299999999999855e+00 1.626900000000000013e+00 1.087809999999999944e+00 8.477619999999999933e+00 1.672819999999999974e+00 1.003020000000000023e+00 4.243660000000000210e+00 1.761000000000000065e-02 3.753639999999999866e+00 8.000000000000000654e-05 -1.866999999999999910e-02 3.837540000000000173e+00 4.239779999999999660e+00 4.999419999999999753e+00 1.086039999999999894e+00 8.479229999999999379e+00 5.044039999999999857e+00 1.012790000000000079e+00 4.231469999999999843e+00 3.333089999999999886e+00 3.903750000000000053e+00 8.474650000000000460e+00 3.354089999999999794e+00 3.824310000000000098e+00 4.255869999999999820e+00 -6.040000000000000230e-03 1.916379999999999972e+00 2.125560000000000116e+00 -4.154999999999999666e-02 2.003309999999999924e+00 6.375899999999999679e+00 -1.682209999999999983e+00 4.727789999999999715e+00 2.107219999999999871e+00 -1.704169999999999963e+00 4.826190000000000424e+00 6.361679999999999779e+00 3.360149999999999970e+00 1.927140000000000075e+00 2.106759999999999966e+00 3.341099999999999959e+00 2.000360000000000138e+00 6.363710000000000200e+00 1.688080000000000025e+00 4.739469999999999850e+00 2.125980000000000203e+00 1.664260000000000073e+00 4.813259999999999650e+00 6.360560000000000436e+00
1.638060000000000072e+00 8.683600000000000207e-01 2.045310000000000183e+00 1.587939999999999907e+00 7.592700000000000005e-01 6.155249999999999666e+00 -2.979000000000000051e-02 3.629490000000000105e+00 2.038990000000000080e+00 -8.024000000000000576e-02 3.511589999999999989e+00 6.164850000000000385e+00 4.978250000000000064e+00 8.690400000000000347e-01 2.048820000000000086e+00 4.932920000000000194e+00 7.548599999999999755e-01 6.176529999999999632e+00 3.306430000000000202e+00 3.616220000000000212e+00 2.046060000000000212e+00 3.256219999999999892e+00 3.529920000000000169e+00 6.166739999999999888e+00 -1.052600000000000063e-01 1.634230000000000071e+00 8.209239999999999426e+00 -5.922000000000000181e-02 1.736639999999999961e+00 4.107289999999999885e+00 -1.790210000000000079e+00 4.398640000000000327e+00 8.203540000000000276e+00 -1.740080000000000071e+00 4.500070000000000014e+00 4.106760000000000410e+00 3.234609999999999985e+00 1.620999999999999996e+00 8.198069999999999524e+00 3.278030000000000221e+00 1.728359999999999896e+00 4.101860000000000284e+00 1.645280000000000076e+00 4.604409999999999670e+00 9.300000000000000541e-04 1.592759999999999954e+00 4.505410000000000359e+00 4.122980000000000089e+00 1.659249999999999892e+00 9.296900000000000164e-01 1.239999999999999956e-02 1.625410000000000021e+00 8.220899999999999874e-01 4.090060000000000251e+00 -1.568999999999999909e-02 3.682469999999999910e+00 7.500000000000000156e-04 -7.033000000000000362e-02 3.574429999999999996e+00 4.103489999999999860e+00 5.008479999999999599e+00 9.180199999999999472e-01 1.449999999999999900e-03 4.959600000000000009e+00 8.178699999999999859e-01 4.110800000000000232e+00 3.225810000000000066e+00 3.473170000000000091e+00 8.211309999999999221e+00 3.264310000000000045e+00 3.588600000000000012e+00 4.108889999999999709e+00 -3.178000000000000269e-02 1.791299999999999892e+00 2.050730000000000164e+00 -7.439999999999999392e-02 1.681380000000000097e+00 6.145730000000000359e+00 -1.725670000000000037e+00 4.552260000000000417e+00 2.055629999999999846e+00 -1.762569999999999970e+00 4.446449999999999569e+00 6.158649999999999736e+00 3.299510000000000165e+00 1.796019999999999950e+00 2.046549999999999869e+00 3.254220000000000113e+00 1.699179999999999913e+00 6.170729999999999826e+00 1.626600000000000046e+00 4.553700000000000081e+00 2.050530000000000186e+00 1.557930000000000037e+00 4.437770000000000437e+00 6.161599999999999966e+00
1.611269999999999980e+00 9.219899999999999762e-01 2.156639999999999890e+00 1.529700000000000060e+00 8.702800000000000535e-01 6.470679999999999765e+00 -1.210399999999999948e-01 3.761029999999999873e+00 2.144210000000000171e+00 -1.925499999999999989e-01 3.706220000000000070e+00 6.467520000000000380e+00 4.956470000000000375e+00 9.191200000000000481e-01 2.154549999999999965e+00 4.885159999999999947e+00 8.762799999999999478e-01 6.458709999999999951e+00 3.225579999999999892e+00 3.738960000000000061e+00 2.163949999999999818e+00 3.138900000000000023e+00 3.694550000000000001e+00 6.450120000000000076e+00 -1.932200000000000029e-01 1.796310000000000073e+00 8.610889999999999489e+00 -1.176100000000000062e-01 1.837089999999999890e+00 4.304210000000000313e+00 -1.775030000000000108e+00 4.720469999999999722e+00 6.870000000000000238e-03 -1.845890000000000031e+00 4.667419999999999902e+00 4.305810000000000137e+00 3.165799999999999947e+00 1.796010000000000106e+00 8.603719999999999146e+00 3.208860000000000046e+00 1.842170000000000085e+00 4.308889999999999887e+00 1.572130000000000027e+00 4.711739999999999817e+00 1.449999999999999900e-03 1.500229999999999952e+00 4.663669999999999760e+00 4.309599999999999653e+00 1.645739999999999981e+00 9.338400000000000034e-01 3.409999999999999837e-03 1.572599999999999998e+00 9.128899999999999793e-01 4.299940000000000317e+00 -8.258999999999999675e-02 3.777590000000000003e+00 2.190000000000000106e-03 -1.536800000000000110e-01 3.727329999999999810e+00 4.308650000000000091e+00 5.009420000000000428e+00 9.534399999999999542e-01 4.749999999999999882e-03 4.912250000000000227e+00 8.954299999999999482e-01 4.308550000000000324e+00 3.253179999999999961e+00 3.768510000000000026e+00 1.979999999999999989e-03 3.179930000000000145e+00 3.731780000000000097e+00 4.289349999999999774e+00 -8.709000000000000075e-02 1.849890000000000034e+00 2.151769999999999960e+00 -1.537999999999999923e-01 1.817080000000000028e+00 6.460300000000000153e+00 -1.808850000000000069e+00 4.688760000000000261e+00 2.154539999999999900e+00 -1.882919999999999927e+00 4.642870000000000275e+00 6.461549999999999905e+00 3.264679999999999804e+00 1.862510000000000110e+00 2.153449999999999864e+00 3.195170000000000066e+00 1.824119999999999964e+00 6.471339999999999648e+00 1.530410000000000048e+00 4.679109999999999658e+00 2.160759999999999792e+00 1.460900000000000087e+00 4.643640000000000434e+00 6.459459999999999980e+00
1.556619994914942628e+00 8.987100106540036881e-01 2.489039999333334308e+00 1.556619995715854410e+00 8.987100129660369197e-01 7.475889999333333868e+00 -2.153954467156310394e-08 3.594850001153983676e+00 2.489039998333334225e+00 -2.073863299048084531e-08 3.594850003466016908e+00 7.475889998333333786e+00 4.669849994914942570e+00 8.987100296539829447e-01 2.489039998833334710e+00 4.669849995715854796e+00 8.987100319660161762e-01 7.475889998833334715e+00 3.113229978460455794e+00 3.594850020153963044e+00 2.489039997833335072e+00 3.113229979261367131e+00 3.594850022465996275e+00 7.475889997833334633e+00 -1.016947201875472874e-08 1.797430002309998054e+00 4.982459999166664488e+00 -9.368560337672468464e-09 1.797430004622031063e+00 9.969309999166664937e+00 -1.556620026623898312e+00 4.493559992809977643e+00 4.982459998166668846e+00 -1.556620025822986531e+00 4.493559995122010875e+00 9.969309998166670184e+00 3.113229989830528233e+00 1.797430021309977199e+00 4.982459998666665335e+00 3.113229990631440014e+00 1.797430023622010209e+00 9.969309998666664896e+00 1.556619973376101473e+00 4.493560011810018295e+00 4.982459997666667917e+00 1.556619974177013255e+00 4.493560014122051527e+00 9.969309997666668366e+00 1.556619995220697161e+00 8.987100115366408737e-01 4.392809999333334048e+00 1.556619996021608721e+00 8.987100138486741052e-01 9.379659999333334497e+00 -2.123379021111332642e-08 3.594850002036620751e+00 4.392809998333333965e+00 -2.043287853003106780e-08 3.594850004348653982e+00 9.379659998333334414e+00 4.669849995220697103e+00 8.987100305366201303e-01 4.392809998833334895e+00 4.669849996021609329e+00 8.987100328486533618e-01 9.379659998833334456e+00 3.113229978766209882e+00 3.594850021036600118e+00 4.392809997833334812e+00 3.113229979567121664e+00 3.594850023348633350e+00 9.379659997833334373e+00 -1.066462763333994500e-08 1.797430000880606560e+00 1.899389999166664733e+00 -9.863717558304951230e-09 1.797430003192635128e+00 6.886229999166665117e+00 -1.556620027119114846e+00 4.493569991380586437e+00 1.899389998166664650e+00 -1.556620026318204841e+00 4.493569993692615228e+00 6.886229998166665034e+00 3.113229989335372760e+00 1.797430019880585705e+00 1.899389998666665136e+00 3.113229990136282765e+00 1.797430022192614274e+00 6.886229998666665963e+00 1.556619972880884939e+00 4.493570010380627089e+00 1.899389997666663721e+00 1.556619973681794944e+00 4.493570012692655880e+00 6.886229997666664104e+00