-2.345169448000000045e+02
-2.344559602999999868e+02
-2.345590682000000129e+02
-2.342990144999999984e+02
-2.339575763400000028e+02
-2.326227580400000079e+02
-2.338233029699999861e+02
-2.342477126299999952e+02
-2.342056468600000017e+02
-2.334825147699999945e+02
-2.341983612299999891e+02
-2.381960626499999876e+02
-2.379054534500000102e+02
-2.380600528500000053e+02
-2.373286583800000074e+02
-2.370799289699999974e+02
-2.377288482099999953e+02
-2.374302448299999924e+02
-2.369181143899999995e+02
-2.374192554999999913e+02
-2.372954186999999990e+02
-2.368204406000000120e+02
