1.490004052191345497e-04 -8.899932159591834532e-05 9.999999999999999547e-07 1.470004006661139700e-04 -8.799933070201138431e-05 -9.999999999999999547e-07 1.460003915600416584e-04 -8.599933525507345953e-05 -9.999999999999999547e-07 1.410004143253001821e-04 -9.099935802022831905e-05 9.999999999999999547e-07 1.410004052192174865e-04 -8.899935802024903290e-05 -1.999999999999999909e-06 1.430003824539900607e-04 -8.399934891421818970e-05 1.999999999999999909e-06 1.440004143252690842e-04 -9.099934436110430273e-05 -1.999999999999999909e-06 1.480004234313102708e-04 -9.299932614891822475e-05 1.999999999999999909e-06 -1.500003870069588558e-04 8.499931704291847944e-05 -1.999999999999999909e-06 -1.470003779009072852e-04 8.299933070206320961e-05 1.999999999999999909e-06 -1.480003505826488685e-04 7.699932614908407114e-05 -9.999999999999999547e-07 -1.470003687948246167e-04 8.099933070208395057e-05 9.999999999999999547e-07 -1.480003779008969012e-04 8.299932614902187536e-05 -9.999999999999999547e-07 -1.510003642417418141e-04 7.999931248992897049e-05 9.999999999999999547e-07 -1.510003596887004662e-04 7.899931248993932742e-05 3.000000000000000076e-06 -1.520003596886901093e-04 7.899930793689799316e-05 -3.000000000000000076e-06 1.440003414766076819e-04 -7.499934436127013557e-05 0.000000000000000000e+00 1.440003414766076819e-04 -7.499934436127013557e-05 9.999999999999999547e-07 1.410003460296801276e-04 -7.599935802038379495e-05 0.000000000000000000e+00 1.400003460296904846e-04 -7.599936257342512920e-05 0.000000000000000000e+00 1.380003369236285299e-04 -7.399937167952852512e-05 0.000000000000000000e+00 1.380003323705871821e-04 -7.299937167953889560e-05 0.000000000000000000e+00 1.420003596887937599e-04 -7.899935346731134925e-05 0.000000000000000000e+00 1.420003596887937599e-04 -7.899935346731134925e-05 -9.999999999999999547e-07 -1.370003961131762728e-04 8.699937623243512443e-05 -9.999999999999999547e-07 -1.360003961131866297e-04 8.699938078547645869e-05 9.999999999999999547e-07 -1.350003733479903289e-04 8.199938533856961824e-05 -9.999999999999999547e-07 -1.340003779010420337e-04 8.299938989160058202e-05 9.999999999999999547e-07 -1.360003870071039612e-04 8.499938078549719965e-05 -9.999999999999999547e-07 -1.380003824540418725e-04 8.399937167942487452e-05 9.999999999999999547e-07 -1.390003733479488470e-04 8.199936712640426768e-05 -1.999999999999999909e-06 -1.390003779009901948e-04 8.299936712639391075e-05 1.999999999999999909e-06
3.977399999999999686e-02 6.572500000000000564e-02 6.550000000000000266e-03 5.488599999999999729e-02 -1.336259999999999948e-01 4.016399999999999831e-02 9.194800000000000195e-02 -1.549010000000000109e-01 5.482000000000000067e-02 -1.821100000000000149e-02 -1.887139999999999929e-01 -1.006819999999999937e-01 1.419269999999999976e-01 -1.283899999999999972e-02 -2.834000000000000061e-02 1.789370000000000127e-01 -2.302150000000000030e-01 -4.667299999999999921e-02 1.021569999999999978e-01 -2.441210000000000047e-01 4.991799999999999710e-02 6.334399999999999753e-02 -1.001930000000000043e-01 -3.608999999999999795e-03 -5.955599999999999783e-02 -2.576000000000000165e-02 -1.930999999999999991e-03 -2.334640000000000049e-01 3.102790000000000270e-01 3.681899999999999756e-02 -1.429749999999999910e-01 1.054979999999999946e-01 -1.693000000000000060e-03 -1.658060000000000089e-01 5.758000000000000097e-03 -5.485000000000000292e-03 -3.389799999999999758e-02 1.128600000000000020e-01 7.601800000000000224e-02 -5.179299999999999876e-02 1.897689999999999932e-01 -6.564000000000000390e-02 1.092810000000000031e-01 2.953799999999999829e-02 5.982099999999999917e-02 -6.735099999999999421e-02 2.634219999999999895e-01 5.186000000000000332e-02 2.011159999999999892e-01 -1.014929999999999999e-01 -4.514100000000000057e-02 5.836100000000000315e-02 -9.302100000000000646e-02 -2.284100000000000019e-02 8.688899999999999402e-02 -3.416799999999999699e-02 -1.355499999999999934e-02 1.545430000000000137e-01 -1.046239999999999948e-01 2.135249999999999926e-01 -1.264679999999999971e-01 -1.200149999999999967e-01 2.416689999999999949e-01 9.494099999999999762e-02 -1.699410000000000087e-01 4.122699999999999976e-02 -1.978800000000000003e-01 -2.530780000000000252e-01 7.922200000000000075e-02 2.163239999999999885e-01 -3.430360000000000076e-01 1.044059999999999988e-01 -2.302200000000000080e-02 -2.636850000000000027e-01 -3.916000000000000036e-02 -9.661699999999999455e-02 3.090200000000000169e-01 -4.140200000000000130e-02 -4.892599999999999727e-02 2.270159999999999956e-01 -9.306399999999999395e-02 1.394199999999999884e-01 1.359660000000000035e-01 -2.284319999999999962e-01 -1.136090000000000017e-01 1.996050000000000046e-01 -9.983200000000000407e-02 -1.576770000000000116e-01 1.842399999999999871e-01 -1.224999999999999960e-03 -8.379100000000000437e-02 2.933950000000000169e-01 -2.525939999999999852e-01 -1.128030000000000005e-01 1.413379999999999914e-01 3.527799999999999686e-02
-6.302599999999999869e-02 2.071520000000000028e-01 4.196400000000000130e-02 -6.286799999999999333e-02 -8.848699999999999621e-02 -1.143900000000000056e-01 1.300880000000000092e-01 -1.828799999999999870e-02 -4.735500000000000126e-02 -4.143080000000000096e-01 1.094109999999999944e-01 6.324899999999999967e-02 -3.648089999999999944e-01 2.316680000000000128e-01 -1.889160000000000006e-01 -2.212429999999999952e-01 -7.675200000000000078e-02 -8.548999999999999308e-03 -1.518899999999999938e-02 2.719799999999999995e-02 -5.083000000000000018e-02 -1.404140000000000110e-01 2.974350000000000049e-01 -5.872499999999999942e-02 8.829099999999999449e-02 -7.795699999999999852e-02 9.357799999999999452e-02 2.592039999999999900e-01 -2.935400000000000162e-02 -6.301700000000000357e-02 1.890169999999999906e-01 -3.668549999999999867e-01 -1.794119999999999882e-01 9.445499999999999730e-02 -7.628500000000000558e-02 8.555100000000000204e-02 1.281839999999999924e-01 -5.162200000000000122e-02 2.138649999999999995e-01 6.040899999999999742e-02 -2.948599999999999832e-02 2.542900000000000021e-02 7.053700000000000248e-02 -9.034399999999999376e-02 3.454299999999999732e-02 1.831879999999999897e-01 -1.337599999999999900e-01 4.203500000000000292e-02 -2.292810000000000126e-01 4.606330000000000147e-01 -1.809300000000000075e-01 -2.404519999999999991e-01 2.578820000000000001e-01 1.850449999999999873e-01 -2.016899999999999943e-02 1.469739999999999935e-01 1.150179999999999952e-01 -2.567400000000000237e-01 4.333700000000000052e-02 4.437599999999999878e-02 -1.120020000000000043e-01 3.150599999999999928e-02 -8.200399999999999356e-02 -1.850700000000000123e-01 -3.405899999999999900e-02 1.708349999999999869e-01 -3.322149999999999825e-01 1.576839999999999908e-01 -2.471309999999999896e-01 -2.442459999999999909e-01 6.337500000000000078e-02 -3.706299999999999872e-02 2.374159999999999882e-01 -1.090769999999999934e-01 -5.069400000000000295e-02 2.680150000000000032e-01 -3.192899999999999905e-02 -1.178590000000000054e-01 1.321100000000000052e-02 -1.431439999999999935e-01 3.740299999999999875e-02 3.354739999999999944e-01 -1.744169999999999887e-01 -3.163099999999999939e-02 2.116190000000000015e-01 -1.913370000000000071e-01 2.696700000000000139e-02 1.179069999999999979e-01 -2.511570000000000191e-01 1.162939999999999946e-01 8.601499999999999424e-02 -1.595129999999999881e-01 7.846799999999999609e-02 4.290039999999999965e-01 9.956700000000000272e-02 8.388500000000000123e-02
3.936499999999999722e-02 8.577700000000000602e-02 1.217850000000000044e-01 4.052300000000000346e-02 1.946410000000000085e-01 1.938000000000000052e-03 -1.517699999999999882e-01 2.509449999999999736e-01 -1.536089999999999955e-01 -7.229499999999999815e-02 4.639999999999999680e-02 2.281519999999999937e-01 -1.989249999999999907e-01 1.029100000000000015e-01 -3.482600000000000279e-02 -9.864000000000000545e-02 3.264199999999999741e-02 -1.558599999999999916e-02 2.647499999999999853e-02 1.524860000000000104e-01 2.894199999999999898e-02 1.341829999999999967e-01 1.206199999999999981e-02 3.091500000000000151e-02 9.635599999999999721e-02 1.587699999999999945e-01 -8.920000000000000151e-02 -6.624499999999999833e-02 -2.614079999999999737e-01 3.600899999999999934e-02 -9.151900000000000313e-02 -2.168069999999999997e-01 -5.140000000000000254e-04 -7.496500000000000385e-02 -3.912000000000000199e-02 -1.271670000000000023e-01 -3.380199999999999871e-02 -7.297199999999999520e-02 -1.909999999999999892e-02 -1.283960000000000101e-01 -1.682269999999999877e-01 7.222000000000000121e-03 -2.411159999999999970e-01 -9.581399999999999639e-02 -8.066999999999999518e-03 1.332079999999999931e-01 -1.162350000000000050e-01 -9.631199999999999484e-02 -3.353400000000000131e-02 1.324770000000000114e-01 6.263699999999999823e-02 1.329980000000000051e-01 2.475239999999999940e-01 4.871600000000000236e-02 1.075500000000000067e-01 7.642000000000000182e-02 5.256199999999999761e-02 1.384569999999999967e-01 9.566099999999999604e-02 2.896400000000000016e-02 1.459550000000000014e-01 -1.408900000000000083e-02 -1.109499999999999931e-01 -2.313399999999999831e-02 2.217500000000000027e-01 -5.081600000000000006e-02 2.158249999999999891e-01 1.758589999999999876e-01 3.696000000000000067e-03 6.596000000000000300e-03 1.146479999999999999e-01 9.535799999999999832e-02 1.382999999999999898e-03 -1.197270000000000001e-01 8.205600000000000394e-02 -5.310299999999999743e-02 -1.006370000000000042e-01 -4.530000000000000064e-04 4.390999999999999764e-02 -3.066590000000000149e-01 -5.875299999999999967e-02 -5.340400000000000008e-02 -2.701180000000000248e-01 -7.530900000000000094e-02 9.342999999999999916e-02 -1.727360000000000007e-01 1.042789999999999967e-01 2.056900000000000048e-02 -7.349300000000000277e-02 1.925100000000000075e-02 7.759000000000000272e-03 -8.323700000000000543e-02 -3.551900000000000196e-02 -6.369600000000000262e-02 1.030700000000000019e-02 -7.630199999999999483e-02
1.489840000000000053e-01 -1.280850000000000044e-01 -8.003799999999999804e-02 3.776030000000000220e-01 -2.301189999999999902e-01 1.240659999999999957e-01 3.309349999999999792e-01 -4.696150000000000047e-01 -1.445950000000000013e-01 3.688649999999999984e-01 -2.243050000000000044e-01 2.118400000000000005e-01 2.821949999999999736e-01 -7.972770000000000135e-01 7.142400000000000138e-02 4.442380000000000217e-01 -1.730990000000000029e-01 -1.642700000000000063e-02 1.932709999999999984e-01 -3.467149999999999954e-01 -1.728129999999999944e-01 1.185569999999999957e-01 -5.927369999999999584e-01 2.905639999999999890e-01 -2.895300000000000096e-01 5.823409999999999975e-01 -1.198199999999999960e-02 -5.120029999999999859e-01 4.064659999999999940e-01 -2.127000000000000071e-02 -7.743039999999999923e-01 3.217220000000000080e-01 -4.721800000000000302e-02 -3.322499999999999898e-01 6.481179999999999719e-01 -4.669500000000000040e-02 -5.888050000000000228e-01 5.089029999999999943e-01 -1.971590000000000009e-01 -4.863859999999999850e-01 3.688819999999999877e-01 1.457789999999999919e-01 -2.401610000000000134e-01 1.413770000000000027e-01 -2.734400000000000025e-02 -1.137979999999999964e-01 4.041350000000000220e-01 -5.701900000000000024e-02 5.953490000000000171e-01 -3.585090000000000221e-01 7.545000000000000318e-02 5.832439999999999847e-01 -7.769319999999999560e-01 9.721000000000000474e-02 5.838579999999999881e-01 -7.536119999999999486e-01 -5.820999999999999786e-03 3.440750000000000197e-01 -4.886960000000000193e-01 -8.794699999999999740e-02 4.194749999999999868e-01 -4.392170000000000241e-01 2.659399999999999958e-02 4.797429999999999750e-01 -5.496149999999999647e-01 4.410399999999999737e-02 7.137179999999999636e-01 -3.924159999999999870e-01 5.631599999999999800e-02 4.116589999999999971e-01 -3.261040000000000050e-01 -1.354229999999999878e-01 -2.185249999999999970e-01 6.361660000000000093e-01 -4.238200000000000300e-02 -5.016110000000000291e-01 2.160179999999999878e-01 -7.701500000000000012e-02 -3.000829999999999886e-01 3.055459999999999843e-01 2.589569999999999927e-01 -2.536359999999999726e-01 4.034820000000000073e-01 -3.179939999999999989e-01 -4.560910000000000242e-01 3.132849999999999802e-01 4.786800000000000083e-02 -4.202969999999999762e-01 5.388490000000000224e-01 -5.458999999999999964e-02 -4.022419999999999884e-01 7.788749999999999840e-01 1.694960000000000078e-01 -5.060440000000000493e-01 4.728890000000000038e-01 -7.593500000000000250e-02
7.829300000000000148e-02 1.675870000000000137e-01 5.302300000000000069e-02 1.035559999999999953e-01 2.359030000000000016e-01 1.771000000000000005e-03 2.220290000000000041e-01 -2.500049999999999772e-01 -1.630699999999999858e-02 -1.547379999999999867e-01 2.484700000000000103e-02 8.215400000000000480e-02 5.507100000000000189e-02 -1.573700000000000099e-02 -2.634999999999999842e-02 -4.308370000000000255e-01 2.171569999999999889e-01 9.744300000000000184e-02 -1.847179999999999933e-01 -1.848170000000000091e-01 2.707840000000000247e-01 4.880799999999999722e-02 1.987980000000000025e-01 -1.800499999999999878e-01 -2.698059999999999903e-01 -2.763699999999999837e-02 6.229000000000000162e-03 9.891099999999999892e-02 -5.543100000000000110e-02 -2.694099999999999967e-02 2.616200000000000123e-02 2.983469999999999733e-01 -2.093409999999999993e-01 -2.914320000000000244e-01 2.193099999999999911e-02 -2.210000000000000159e-03 5.234490000000000531e-01 -1.987549999999999872e-01 -8.311300000000000632e-02 1.561250000000000138e-01 -8.112700000000000466e-02 6.273499999999999910e-02 -5.078730000000000189e-01 -1.409479999999999900e-01 -1.213000000000000016e-02 7.269000000000000461e-02 -9.436600000000000543e-02 -5.813999999999999724e-03 -3.817650000000000210e-01 -1.386020000000000030e-01 6.733999999999999708e-02 -7.212499999999999467e-02 1.547640000000000127e-01 -2.033129999999999937e-01 3.356190000000000007e-01 3.404999999999999694e-02 -1.600400000000000086e-02 1.332649999999999946e-01 3.187000000000000249e-02 -1.977510000000000101e-01 2.688550000000000106e-01 1.473329999999999917e-01 1.835400000000000087e-01 -1.175169999999999965e-01 -2.602099999999999899e-02 -3.492100000000000065e-02 -8.506500000000000172e-02 1.104569999999999996e-01 -6.080000000000000335e-04 5.280599999999999877e-02 3.237900000000000222e-01 -7.251999999999999766e-03 8.783699999999999841e-02 6.702900000000000524e-02 6.994200000000000417e-02 4.166079999999999783e-01 -4.501399999999999846e-02 7.944099999999999773e-02 9.430900000000000394e-02 1.001120000000000065e-01 -8.810000000000000123e-03 4.683999999999999969e-02 -2.841489999999999849e-01 6.535299999999999443e-02 -3.340839999999999921e-01 -1.383840000000000070e-01 -1.251400000000000082e-02 -2.064410000000000134e-01 -3.621960000000000179e-01 -9.144199999999999551e-02 -7.614899999999999447e-02 8.803000000000000061e-03 -1.265200000000000005e-02 2.913200000000000234e-01 -9.958799999999999597e-02 1.077720000000000067e-01
9.457100000000000228e-02 -6.962580000000000435e-01 -1.130519999999999997e-01 -1.394289999999999974e-01 -7.139339999999999575e-01 2.125890000000000002e-01 2.560799999999999743e-01 -7.093190000000000328e-01 -1.426419999999999910e-01 -6.311999999999999555e-02 -4.433619999999999783e-01 1.070519999999999944e-01 -2.865499999999999992e-02 -5.138179999999999970e-01 -7.852800000000000058e-02 -1.288759999999999906e-01 -7.349879999999999747e-01 -7.483199999999999574e-02 1.770549999999999902e-01 -4.729099999999999970e-01 -1.623269999999999991e-01 -1.985599999999999865e-02 -6.456399999999999917e-01 1.639249999999999874e-01 1.328409999999999869e-01 4.131299999999999972e-01 2.616100000000000023e-02 -2.224309999999999898e-01 2.694400000000000128e-01 -4.225999999999999895e-02 -1.332810000000000106e-01 5.010000000000000009e-01 9.107999999999999777e-03 2.853530000000000233e-01 5.484539999999999971e-01 -2.102400000000000102e-02 -4.627249999999999974e-01 7.134439999999999671e-01 3.754099999999999798e-02 -6.251800000000000412e-02 4.636700000000000266e-01 5.607000000000000178e-02 -1.156680000000000069e-01 2.012980000000000047e-01 5.337999999999999690e-02 2.300149999999999972e-01 3.823969999999999869e-01 5.637299999999999950e-02 2.962549999999999906e-01 -4.123140000000000138e-01 4.220600000000000046e-02 1.687500000000000111e-02 -4.334419999999999940e-01 5.189699999999999869e-02 3.276939999999999853e-01 -3.821490000000000165e-01 -4.893200000000000327e-02 -9.494800000000000462e-02 -6.204589999999999828e-01 -2.575399999999999912e-02 8.702899999999999525e-02 -6.958029999999999493e-01 -6.974099999999999744e-02 1.635669999999999902e-01 -4.249530000000000252e-01 -1.475970000000000060e-01 5.581000000000000023e-03 -7.444619999999999571e-01 -3.274799999999999933e-02 -1.776590000000000114e-01 -6.213600000000000234e-01 1.005499999999999970e-02 -8.701100000000000501e-02 7.480510000000000215e-01 8.847900000000000209e-02 7.416899999999999882e-02 7.001429999999999598e-01 -1.656360000000000054e-01 -4.118370000000000086e-01 6.986470000000000180e-01 1.990669999999999940e-01 2.180000000000000134e-04 7.022030000000000216e-01 -1.944859999999999922e-01 -3.530300000000000105e-02 5.126410000000000133e-01 1.050539999999999946e-01 1.933459999999999901e-01 8.377160000000000162e-01 3.049999999999999933e-02 -1.073810000000000042e-01 8.402279999999999749e-01 8.970100000000000295e-02 -4.995000000000000134e-02 7.327090000000000547e-01 -1.959999999999999937e-02
-2.316280000000000006e-01 1.029550000000000048e-01 -1.664629999999999999e-01 2.774989999999999957e-01 -4.887250000000000205e-01 1.791000000000000092e-01 1.554810000000000081e-01 -1.755150000000000043e-01 -1.605820000000000025e-01 6.317300000000000693e-02 -1.230190000000000033e-01 7.124800000000000577e-02 1.016849999999999976e-01 -1.864460000000000006e-01 8.588700000000000501e-02 2.302099999999999980e-02 -3.657759999999999900e-01 -2.207999999999999963e-01 -3.641750000000000265e-01 -4.251420000000000199e-01 4.045499999999999791e-02 2.712870000000000004e-01 -1.308159999999999878e-01 1.386000000000000079e-03 2.047589999999999966e-01 8.745500000000000496e-02 2.215509999999999979e-01 -1.550850000000000006e-01 1.428310000000000135e-01 -1.288809999999999956e-01 2.870159999999999934e-01 3.792880000000000140e-01 -1.778200000000000058e-01 -3.174879999999999924e-01 2.802040000000000086e-01 8.170900000000000385e-02 -5.104140000000000343e-01 1.628390000000000115e-01 1.358580000000000065e-01 3.814200000000000229e-02 1.222020000000000051e-01 -4.097800000000000054e-02 -2.682689999999999797e-01 1.588360000000000050e-01 8.544699999999999518e-02 -2.590350000000000152e-01 3.095350000000000046e-01 -8.350100000000000577e-02 2.786930000000000240e-01 -2.033999999999999975e-01 3.309399999999999842e-02 -6.701899999999999524e-02 -3.664890000000000092e-01 2.136899999999999911e-01 -2.563999999999999960e-02 -3.396699999999999720e-02 -4.697199999999999986e-02 4.195769999999999778e-01 -4.138319999999999776e-01 4.871000000000000330e-02 1.463839999999999864e-01 -2.990700000000000025e-01 -7.474899999999999600e-02 1.269210000000000060e-01 -1.986169999999999880e-01 1.273100000000000065e-01 5.563200000000000089e-02 -5.070719999999999672e-01 1.307979999999999976e-01 2.945650000000000213e-01 -3.869500000000000023e-02 1.737110000000000043e-01 1.571200000000000027e-02 2.238009999999999999e-01 2.488999999999999893e-03 -1.572999999999999954e-01 2.949609999999999732e-01 -1.272189999999999988e-01 2.564270000000000160e-01 1.805130000000000068e-01 -2.355099999999999902e-02 -3.445300000000000029e-01 4.869709999999999872e-01 -2.729539999999999744e-01 -2.801299999999999971e-02 3.649700000000000166e-01 -1.024029999999999940e-01 -1.405170000000000030e-01 2.342259999999999898e-01 -1.861600000000000060e-02 -3.226199999999999901e-02 1.130049999999999943e-01 4.432599999999999735e-02 -1.145990000000000064e-01 3.119930000000000203e-01 -3.127900000000000125e-02
-3.734200000000000019e-02 2.597679999999999989e-01 -2.868800000000000169e-02 7.446400000000000241e-02 5.451939999999999564e-01 7.891700000000000104e-02 4.565500000000000114e-02 4.023829999999999907e-01 6.706800000000000261e-02 1.424729999999999885e-01 8.078830000000000178e-01 2.886899999999999883e-02 7.295899999999999608e-02 8.481929999999999747e-01 5.008200000000000152e-02 1.179439999999999933e-01 3.786470000000000113e-01 -1.742499999999999952e-02 5.070800000000000307e-02 6.674280000000000213e-01 1.240400000000000010e-02 -7.217999999999999416e-02 7.134500000000000286e-01 2.078999999999999945e-02 -6.075200000000000045e-02 -6.364389999999999770e-01 1.747599999999999848e-02 1.779999999999999898e-04 -4.012260000000000271e-01 -8.512100000000000222e-02 -1.469560000000000033e-01 -3.083540000000000170e-01 -5.625000000000000139e-02 -1.977559999999999873e-01 -4.545890000000000208e-01 1.856100000000000111e-02 -2.339920000000000055e-01 -3.269850000000000256e-01 1.755500000000000116e-02 -7.042099999999999749e-02 -7.877969999999999695e-01 -4.405400000000000288e-02 -1.019240000000000007e-01 -2.925989999999999980e-01 -1.646990000000000121e-01 -1.731500000000000053e-02 -4.681620000000000226e-01 6.388199999999999434e-02 1.937020000000000131e-01 6.132670000000000066e-01 5.151900000000000229e-02 -4.339200000000000002e-02 8.710890000000000022e-01 -6.030200000000000143e-02 8.491899999999999449e-02 5.819649999999999546e-01 1.345599999999999921e-02 2.126730000000000009e-01 3.227300000000000169e-01 3.864999999999999946e-03 1.728689999999999949e-01 4.841150000000000175e-01 9.680999999999999328e-02 -1.708729999999999971e-01 6.376319999999999766e-01 7.501099999999999435e-02 6.749299999999999744e-02 4.755449999999999955e-01 7.000000000000000666e-02 1.637589999999999879e-01 7.580280000000000351e-01 -2.195310000000000039e-01 -4.094099999999999823e-02 -5.325459999999999638e-01 -6.630500000000000282e-02 3.325800000000000284e-02 -7.436340000000000172e-01 -1.757400000000000073e-01 -4.287799999999999945e-02 -3.866149999999999864e-01 1.353149999999999908e-01 -2.357599999999999973e-02 -9.047319999999999807e-01 4.934299999999999797e-02 3.559400000000000064e-02 -8.187809999999999810e-01 1.311650000000000038e-01 -1.153799999999999965e-01 -7.316359999999999530e-01 -1.108100000000000057e-02 1.085900000000000060e-02 -8.901750000000000496e-01 -8.572799999999999865e-02 -1.038270000000000026e-01 -6.830439999999999845e-01 1.283499999999999919e-02
-8.782299999999999829e-02 6.620880000000000098e-01 9.754699999999999482e-02 1.341690000000000105e-01 8.365080000000000293e-01 -1.013000000000000012e-02 -3.064569999999999794e-01 7.734729999999999661e-01 2.603300000000000058e-01 -3.513839999999999741e-01 8.830750000000000544e-01 -1.234039999999999998e-01 -1.547999999999999897e-03 6.971960000000000379e-01 1.217099999999999987e-01 -1.549500000000000044e-01 8.656989999999999963e-01 -2.209579999999999878e-01 -2.709829999999999739e-01 1.137210999999999972e+00 1.168059999999999932e-01 -2.665390000000000259e-01 6.972300000000000164e-01 -1.246339999999999948e-01 8.343699999999999728e-02 -6.989800000000000457e-01 1.158489999999999936e-01 1.252469999999999972e-01 -6.484779999999999989e-01 -1.666799999999999948e-01 4.648700000000000054e-02 -6.903110000000000079e-01 1.663239999999999996e-01 3.633700000000000124e-02 -7.245960000000000178e-01 -1.681060000000000054e-01 -8.350000000000000217e-04 -3.337350000000000039e-01 1.202430000000000027e-01 2.082090000000000052e-01 -2.490199999999999914e-01 5.763700000000000073e-02 2.016030000000000044e-01 -8.240509999999999780e-01 8.796299999999999952e-02 8.233600000000000640e-02 -8.609569999999999723e-01 -2.819820000000000104e-01 -2.460499999999999840e-02 5.830549999999999899e-01 -2.469699999999999951e-01 -2.464979999999999949e-01 6.611799999999999899e-01 3.256499999999999950e-01 -1.996390000000000109e-01 8.018610000000000460e-01 -6.160999999999999810e-02 -2.726500000000000104e-02 9.051090000000000524e-01 1.027450000000000030e-01 -1.043420000000000042e-01 8.838759999999999950e-01 -9.762300000000000144e-02 -2.384120000000000128e-01 8.404179999999999984e-01 4.682800000000000157e-02 -6.462099999999999789e-02 7.728399999999999714e-01 -3.493099999999999677e-02 4.524700000000000250e-02 5.049700000000000299e-01 1.089890000000000025e-01 -4.587700000000000111e-02 -8.510259999999999492e-01 -6.526300000000000157e-02 -6.459099999999999564e-02 -9.973940000000000028e-01 2.226400000000000046e-01 3.776680000000000037e-01 -9.128129999999999855e-01 -1.696290000000000020e-01 1.879649999999999932e-01 -7.926290000000000280e-01 3.567300000000000332e-02 2.864499999999999824e-01 -1.181947000000000081e+00 -3.154999999999999818e-03 1.365129999999999955e-01 -1.267495000000000038e+00 -1.653669999999999862e-01 8.132000000000000339e-02 -8.355890000000000262e-01 -7.927399999999999725e-02 4.233830000000000093e-01 -6.367669999999999719e-01 3.278199999999999864e-02
-2.314319999999999988e-01 2.504509999999999792e-01 -7.359499999999999376e-02 -7.516699999999999771e-02 3.126329999999999942e-01 7.746000000000000281e-03 -1.890529999999999988e-01 -1.596619999999999984e-01 1.096909999999999968e-01 -2.525640000000000107e-01 1.885539999999999994e-01 -1.075279999999999986e-01 -3.077699999999999880e-01 1.170830000000000065e-01 3.841800000000000076e-02 -2.511630000000000251e-01 2.023890000000000133e-01 -7.225299999999999778e-02 -2.752339999999999787e-01 3.687630000000000075e-01 -1.231919999999999960e-01 1.474400000000000016e-02 5.094729999999999537e-01 1.790349999999999997e-01 3.665010000000000212e-01 -1.902109999999999912e-01 1.072509999999999991e-01 1.046200000000000047e-01 -8.041299999999999837e-02 -4.479799999999999754e-02 6.802500000000000213e-02 -4.913509999999999822e-01 -3.514400000000000163e-02 2.767910000000000093e-01 -1.464979999999999893e-01 1.966499999999999845e-02 -4.561799999999999883e-02 -2.758610000000000229e-01 1.076819999999999999e-01 5.795420000000000016e-01 -2.633449999999999958e-01 -7.064099999999999546e-02 2.933399999999999896e-01 -1.375190000000000023e-01 5.353299999999999725e-02 -2.123799999999999993e-02 -1.162109999999999949e-01 -9.901200000000000279e-02 -7.033000000000000362e-02 6.047390000000000265e-01 -8.823100000000000387e-02 -3.299210000000000198e-01 -4.728099999999999664e-02 1.077039999999999942e-01 -2.538759999999999906e-01 2.499939999999999940e-01 -3.933999999999999997e-02 -3.376950000000000229e-01 2.407120000000000093e-01 1.935800000000000021e-02 -5.604160000000000252e-01 -3.095999999999999794e-03 -1.071479999999999932e-01 -2.832560000000000078e-01 3.560490000000000044e-01 6.410599999999999632e-02 -9.194099999999999495e-02 3.629950000000000121e-01 -4.118000000000000133e-03 -1.019680000000000031e-01 1.670699999999999963e-01 2.366570000000000062e-01 4.334529999999999772e-01 7.938599999999999823e-02 4.254200000000000342e-02 3.192570000000000130e-01 -2.450880000000000003e-01 4.782299999999999746e-02 2.111729999999999996e-01 -2.360599999999999921e-01 2.596700000000000050e-02 1.080559999999999993e-01 -3.077570000000000028e-01 -1.059070000000000011e-01 2.716589999999999838e-01 -4.334140000000000215e-01 -6.220000000000000485e-04 7.753500000000000669e-02 -5.575689999999999813e-01 -1.183580000000000049e-01 3.290029999999999899e-01 -6.438000000000000667e-02 -1.103949999999999931e-01 2.249410000000000021e-01 -2.545740000000000225e-01 3.310099999999999848e-02
-2.000000091384089553e-06 -2.760091379885983911e-13 -5.689999999996787038e-04 -1.000000097165859416e-06 9.999997310210935933e-07 -5.670000000003030472e-04 9.999999145582851993e-07 -1.000000258163825109e-06 -5.699999999996969427e-04 -1.000000078535711307e-06 -2.000000268051654221e-06 -5.649999999989120756e-04 1.999999914718889801e-06 -1.000000251597219338e-06 -5.689999999998574887e-04 9.999998970523700401e-07 1.999999744154304667e-06 -5.650000000010878525e-04 -1.000000097647673779e-06 9.999997296302157308e-07 -5.700000000003030117e-04 9.999999155219137141e-07 -1.000000255382069384e-06 -5.639999999996970137e-04 -1.000000138120064835e-06 -4.048213165837793105e-13 -8.599999999998394085e-04 -2.000000144704858475e-06 9.999995876848257591e-07 -8.630000000001425160e-04 -1.321776900309214013e-13 -1.000000399181962820e-06 -8.609999999995363983e-04 -2.000000120453544560e-06 -3.000000412778800085e-06 -8.639999999982879040e-04 9.999998617193302166e-07 -3.930789833319379164e-13 -8.610000000001605735e-04 1.999999842767972134e-06 2.999999611169492181e-06 -8.650000000017120556e-04 -1.386018790968228249e-13 -4.001092148909146174e-13 -8.630000000000000518e-04 9.999998675011004581e-07 -1.000000394006235335e-06 -8.629999999996970173e-04 -2.999999898015998676e-06 1.000000293711341087e-06 6.730000000000182017e-04 -2.999999898015998676e-06 1.000000293711341087e-06 6.730000000000182017e-04 -1.999999885810039440e-06 -9.999997001856792882e-07 6.730000000007848411e-04 -1.999999891752414328e-06 3.002779467268208574e-13 6.740000000003212605e-04 9.588102180857846774e-14 2.000000312020279857e-06 6.729999999990727774e-04 1.021446061478323425e-13 1.000000312483905927e-06 6.739999999995364066e-04 -9.999998920736236668e-07 3.054536743929079722e-13 6.720000000001605332e-04 -9.999998978553936965e-07 1.000000306380926392e-06 6.739999999996969769e-04 1.215777780721840864e-13 3.509648617293421986e-13 7.569999999999999689e-04 1.000000127680757513e-06 -9.999996429321586263e-07 7.570000000003030034e-04 1.000000139726112147e-06 -2.999999643395784772e-06 7.560000000012302972e-04 1.339443420240442997e-13 -1.999999648571512091e-06 7.580000000009272029e-04 3.000000115314193918e-06 1.000000368810174539e-06 7.559999999990546287e-04 2.000000115635403045e-06 1.000000363634446843e-06 7.579999999992151393e-04 2.000000127680757468e-06 -9.999996368291788799e-07 7.570000000001424331e-04 3.000000127680757634e-06 -9.999996307261993453e-07 7.569999999999817543e-04