3.583786814002359211e+00 3.811122339389247249e-23 0.000000000000000000e+00 -1.791900934958000402e+00 3.103645486493404437e+00 -8.271806125530276749e-25 5.679705547347490365e-08 4.051761321518071145e-08 4.487069306999999618e+00
3.630482463999999965e+00 0.000000000000000000e+00 0.000000000000000000e+00 -1.837439480000000014e+00 3.192112503000000157e+00 0.000000000000000000e+00 1.076245670000000043e-01 1.296273860000000111e-01 4.491419456000000032e+00
3.580438490000000140e+00 0.000000000000000000e+00 0.000000000000000000e+00 -1.711983948999999949e+00 3.194072357000000029e+00 0.000000000000000000e+00 9.912120700000000284e-02 -8.627048900000000575e-02 4.537364797999999588e+00
3.682868839000000172e+00 0.000000000000000000e+00 0.000000000000000000e+00 -1.849891635000000090e+00 3.027470366999999829e+00 0.000000000000000000e+00 -5.696841899999999931e-02 -1.256578080000000097e-01 4.417043567000000337e+00
3.616327188000000081e+00 0.000000000000000000e+00 0.000000000000000000e+00 -1.770112684000000103e+00 3.128400195999999855e+00 0.000000000000000000e+00 -1.401747400000000025e-02 -1.229174799999999956e-01 4.563273041000000418e+00
3.646018665999999797e+00 0.000000000000000000e+00 0.000000000000000000e+00 -1.741772352999999995e+00 3.031638308999999865e+00 0.000000000000000000e+00 -1.091145480000000056e-01 4.796840200000000026e-02 4.580144065999999903e+00
3.517412102000000207e+00 0.000000000000000000e+00 0.000000000000000000e+00 -1.782879915000000093e+00 3.049148989999999948e+00 0.000000000000000000e+00 5.149657600000000224e-02 -1.883875299999999975e-02 4.597618405999999602e+00
3.487904015999999885e+00 0.000000000000000000e+00 0.000000000000000000e+00 -1.795853087000000015e+00 3.150179361000000178e+00 0.000000000000000000e+00 1.281826450000000117e-01 -5.668231700000000289e-02 4.440111897000000418e+00
3.500145401999999795e+00 0.000000000000000000e+00 0.000000000000000000e+00 -1.719660079999999924e+00 3.092656473999999989e+00 0.000000000000000000e+00 7.222470300000000121e-02 1.712579300000000027e-02 4.421628174000000300e+00
3.652695145000000032e+00 0.000000000000000000e+00 0.000000000000000000e+00 -1.878498618000000064e+00 3.188802670999999922e+00 0.000000000000000000e+00 -8.151002000000000247e-02 -1.043372050000000023e-01 4.591174758000000189e+00
3.639497301000000018e+00 0.000000000000000000e+00 0.000000000000000000e+00 -1.827980960999999960e+00 3.193371954999999929e+00 0.000000000000000000e+00 -1.259654749999999934e-01 -1.267524070000000114e-01 4.554548859999999699e+00
3.570925938999999882e+00 0.000000000000000000e+00 0.000000000000000000e+00 -1.799590167999999935e+00 3.077386849999999896e+00 0.000000000000000000e+00 1.631892500000000149e-02 9.682869999999999672e-03 4.523454390999999575e+00
3.663415388999999855e+00 0.000000000000000000e+00 0.000000000000000000e+00 -1.780193920000000096e+00 3.011039688999999964e+00 0.000000000000000000e+00 5.830112999999999615e-03 9.384350900000000550e-02 4.522629562999999742e+00
3.570224411999999958e+00 0.000000000000000000e+00 0.000000000000000000e+00 -1.870594027000000104e+00 3.140442508000000021e+00 0.000000000000000000e+00 -9.276627499999999527e-02 -3.395294299999999932e-02 4.378051907999999770e+00
3.638981196000000029e+00 0.000000000000000000e+00 0.000000000000000000e+00 -1.765114937999999967e+00 3.035551157000000000e+00 0.000000000000000000e+00 4.269279699999999761e-02 -3.937249000000000304e-03 4.491896307000000199e+00
3.659598551999999838e+00 0.000000000000000000e+00 0.000000000000000000e+00 -1.835389691000000045e+00 3.086640887999999805e+00 0.000000000000000000e+00 -2.117445999999999825e-03 1.856919999999999968e-04 4.528191181000000398e+00
3.639999276999999811e+00 0.000000000000000000e+00 0.000000000000000000e+00 -1.886415514999999932e+00 3.051890939000000191e+00 0.000000000000000000e+00 -7.991664599999999397e-02 -1.125012219999999979e-01 4.401584143000000005e+00
3.573003295999999995e+00 0.000000000000000000e+00 0.000000000000000000e+00 -1.700963865000000075e+00 3.164501632999999980e+00 0.000000000000000000e+00 7.390219400000000438e-02 8.487180900000000638e-02 4.372065409000000180e+00
3.678496081000000029e+00 0.000000000000000000e+00 0.000000000000000000e+00 -1.765907338999999965e+00 3.048598741999999806e+00 0.000000000000000000e+00 2.539936200000000172e-02 -1.283260370000000039e-01 4.614395630999999831e+00
3.502207776000000106e+00 0.000000000000000000e+00 0.000000000000000000e+00 -1.749200362000000064e+00 3.051819078999999935e+00 0.000000000000000000e+00 -1.248578979999999949e-01 1.106929430000000020e-01 4.359138770999999579e+00
3.579003739000000017e+00 0.000000000000000000e+00 0.000000000000000000e+00 -1.776081829000000001e+00 3.026354446000000031e+00 0.000000000000000000e+00 -6.400048199999999743e-02 -4.588889699999999794e-02 4.470273021999999763e+00
3.619986681002382856e+00 -2.344278177445232109e-22 0.000000000000000000e+00 -1.810000944464997152e+00 3.134995440993338711e+00 4.135903062765138374e-25 5.679705547896313452e-08 4.051761321270261069e-08 4.532393240000000212e+00
3.613865446000000148e+00 0.000000000000000000e+00 0.000000000000000000e+00 -1.749247449999999926e+00 3.196055721000000016e+00 0.000000000000000000e+00 1.154089060000000055e-01 1.317667929999999932e-01 4.467882711999999756e+00
3.610455598999999793e+00 0.000000000000000000e+00 0.000000000000000000e+00 -1.847926313000000098e+00 3.060143610999999986e+00 0.000000000000000000e+00 -1.223435580000000050e-01 -9.088403000000000106e-03 4.573520610000000097e+00
3.517726881999999833e+00 0.000000000000000000e+00 0.000000000000000000e+00 -1.846890850000000084e+00 3.199954030999999866e+00 0.000000000000000000e+00 2.194731399999999902e-02 4.947440899999999697e-02 4.495053733999999857e+00
3.692116133999999938e+00 0.000000000000000000e+00 0.000000000000000000e+00 -1.800456953000000082e+00 3.181588120999999880e+00 0.000000000000000000e+00 -3.219694800000000301e-02 -1.026005640000000052e-01 4.617348971000000191e+00
3.615206949000000058e+00 0.000000000000000000e+00 0.000000000000000000e+00 -1.861708012000000023e+00 3.080727009999999932e+00 0.000000000000000000e+00 -1.089650830000000042e-01 -5.926604999999999721e-03 4.509500000000000064e+00
3.524642403000000090e+00 0.000000000000000000e+00 0.000000000000000000e+00 -1.717516733999999934e+00 3.113453395000000068e+00 0.000000000000000000e+00 -8.362610500000000613e-02 -1.047465449999999965e-01 4.415926611999999807e+00
3.520142883000000111e+00 0.000000000000000000e+00 0.000000000000000000e+00 -1.741022756000000005e+00 3.134370250999999996e+00 0.000000000000000000e+00 2.869361499999999870e-02 1.660520899999999925e-02 4.638725288999999918e+00
3.702858630000000151e+00 0.000000000000000000e+00 0.000000000000000000e+00 -1.790586396999999996e+00 3.093347319999999900e+00 0.000000000000000000e+00 -9.104085000000000649e-02 8.576101199999999758e-02 4.401524152000000356e+00
3.708867645999999851e+00 0.000000000000000000e+00 0.000000000000000000e+00 -1.776104896999999960e+00 3.151295917000000113e+00 0.000000000000000000e+00 -2.536350000000000063e-02 3.782721399999999790e-02 4.486299799000000199e+00
3.585176484999999857e+00 0.000000000000000000e+00 0.000000000000000000e+00 -1.741529243000000005e+00 3.064280210000000171e+00 0.000000000000000000e+00 -1.623074199999999939e-02 -9.959644900000000356e-02 4.514575370000000198e+00
3.558292588000000034e+00 0.000000000000000000e+00 0.000000000000000000e+00 -1.713644549999999933e+00 3.163332448999999880e+00 0.000000000000000000e+00 7.235534100000000357e-02 -1.075381259999999978e-01 4.645887809000000424e+00
3.577303074000000027e+00 0.000000000000000000e+00 0.000000000000000000e+00 -1.857597383000000102e+00 3.080534844000000216e+00 0.000000000000000000e+00 -1.198028440000000056e-01 -2.055864699999999934e-02 4.432872125000000274e+00
3.552592358000000061e+00 0.000000000000000000e+00 0.000000000000000000e+00 -1.686075548999999896e+00 3.096472417000000199e+00 0.000000000000000000e+00 -7.799240500000000076e-02 2.998167300000000035e-02 4.510509428999999848e+00
3.614801084000000220e+00 0.000000000000000000e+00 0.000000000000000000e+00 -1.900897280999999994e+00 3.208398458000000009e+00 0.000000000000000000e+00 -9.146070900000000115e-02 3.680102799999999952e-02 4.471476159999999922e+00
3.667437089999999955e+00 0.000000000000000000e+00 0.000000000000000000e+00 -1.744500299000000032e+00 3.128781476999999978e+00 0.000000000000000000e+00 -4.704062800000000100e-02 -1.062770269999999961e-01 4.563762387999999781e+00
3.550701065999999795e+00 0.000000000000000000e+00 0.000000000000000000e+00 -1.790479927000000027e+00 3.085210170999999946e+00 0.000000000000000000e+00 2.777657000000000216e-03 1.118139159999999993e-01 4.516540793999999970e+00
3.699463251000000064e+00 0.000000000000000000e+00 0.000000000000000000e+00 -1.920491269000000001e+00 3.184597896000000095e+00 0.000000000000000000e+00 6.827526800000000007e-02 1.101847809999999955e-01 4.599598894999999743e+00
3.708947852000000101e+00 0.000000000000000000e+00 0.000000000000000000e+00 -1.855265082999999926e+00 3.070459846999999964e+00 0.000000000000000000e+00 -2.036642899999999839e-02 -5.138791499999999929e-02 4.652207362000000401e+00
3.537379714000000064e+00 0.000000000000000000e+00 0.000000000000000000e+00 -1.760442148999999956e+00 3.103149702000000065e+00 0.000000000000000000e+00 8.204134500000000163e-02 -3.061317599999999889e-02 4.463947386000000073e+00
3.664871349999999861e+00 0.000000000000000000e+00 0.000000000000000000e+00 -1.792671109999999901e+00 3.116292431999999835e+00 0.000000000000000000e+00 -7.938039800000000479e-02 -1.213281959999999993e-01 4.487833925000000335e+00
3.656186548002407832e+00 -2.157898684925751165e-22 3.308722450212110699e-24 -1.828100953838017961e+00 3.166345394993271167e+00 8.271806125530276749e-25 5.679705432466440637e-08 4.151761321553110750e-08 4.577717171999999834e+00
3.652471911000000127e+00 0.000000000000000000e+00 0.000000000000000000e+00 -1.898616430999999993e+00 3.113830325999999982e+00 0.000000000000000000e+00 4.551622500000000043e-02 -1.505247399999999972e-02 4.704577920000000191e+00
3.741959705999999830e+00 0.000000000000000000e+00 0.000000000000000000e+00 -1.778340601000000021e+00 3.216156298000000024e+00 0.000000000000000000e+00 7.032352499999999784e-02 8.545433199999999396e-02 4.637592005000000128e+00
3.547038001000000218e+00 0.000000000000000000e+00 0.000000000000000000e+00 -1.826850560000000012e+00 3.175128249000000125e+00 0.000000000000000000e+00 7.727310000000000255e-04 -3.157284999999999953e-02 4.613896099999999834e+00
3.765875111999999802e+00 0.000000000000000000e+00 0.000000000000000000e+00 -1.937300046000000053e+00 3.259501558999999826e+00 0.000000000000000000e+00 -4.092399599999999721e-02 -1.321171009999999868e-01 4.473266781000000414e+00
3.571590436999999785e+00 0.000000000000000000e+00 0.000000000000000000e+00 -1.713849791999999983e+00 3.155940893999999997e+00 0.000000000000000000e+00 -1.313187900000000082e-02 3.926470299999999802e-02 4.700150539000000016e+00
3.704949120000000207e+00 0.000000000000000000e+00 0.000000000000000000e+00 -1.861287485999999936e+00 3.149363387999999819e+00 0.000000000000000000e+00 -2.157094199999999920e-02 -4.423220800000000202e-02 4.496070356999999795e+00
3.705492527000000091e+00 0.000000000000000000e+00 0.000000000000000000e+00 -1.804478720000000092e+00 3.115276468999999882e+00 0.000000000000000000e+00 -2.971917500000000045e-02 -1.014346549999999986e-01 4.452343952999999743e+00
3.645418048999999883e+00 0.000000000000000000e+00 0.000000000000000000e+00 -1.896473502000000089e+00 3.207196596000000177e+00 0.000000000000000000e+00 -2.793383099999999925e-02 1.218456210000000012e-01 4.592585885000000090e+00
3.685428903000000034e+00 0.000000000000000000e+00 0.000000000000000000e+00 -1.753940798999999995e+00 3.256919595999999917e+00 0.000000000000000000e+00 1.051586929999999975e-01 4.317147300000000187e-02 4.634159355999999619e+00
3.648907610000000190e+00 0.000000000000000000e+00 0.000000000000000000e+00 -1.764695585999999983e+00 3.106133666999999932e+00 0.000000000000000000e+00 4.895707900000000057e-02 7.133574000000000165e-03 4.704683101999999728e+00
3.596343813999999917e+00 0.000000000000000000e+00 0.000000000000000000e+00 -1.809284646000000052e+00 3.098593833999999880e+00 0.000000000000000000e+00 -7.636234599999999761e-02 8.116384699999999730e-02 4.507231809000000311e+00
3.604378920999999902e+00 0.000000000000000000e+00 0.000000000000000000e+00 -1.869649692000000085e+00 3.095220888000000059e+00 0.000000000000000000e+00 -8.234941399999999578e-02 -4.097353200000000001e-02 4.457654294000000128e+00
3.587597279000000139e+00 0.000000000000000000e+00 0.000000000000000000e+00 -1.847140248999999956e+00 3.074637941999999846e+00 0.000000000000000000e+00 1.137058670000000021e-01 1.132893360000000044e-01 4.471460502000000226e+00
3.585205822999999903e+00 0.000000000000000000e+00 0.000000000000000000e+00 -1.841256774000000096e+00 3.176294426000000115e+00 0.000000000000000000e+00 -5.086998200000000109e-02 -5.736798000000000418e-03 4.637047067000000133e+00
3.619607052000000103e+00 0.000000000000000000e+00 0.000000000000000000e+00 -1.796227668000000000e+00 3.080598729000000091e+00 0.000000000000000000e+00 -1.257155470000000108e-01 7.446264299999999503e-02 4.476500644999999778e+00
3.574754941000000130e+00 0.000000000000000000e+00 0.000000000000000000e+00 -1.746727906999999913e+00 3.196574951000000109e+00 0.000000000000000000e+00 7.585616600000000265e-02 1.235573489999999969e-01 4.617511926999999794e+00
3.706440469999999987e+00 0.000000000000000000e+00 0.000000000000000000e+00 -1.848593868999999890e+00 3.115576775000000076e+00 0.000000000000000000e+00 -8.944494000000000056e-02 -7.972368300000000352e-02 4.491851709999999720e+00
3.712716922999999891e+00 0.000000000000000000e+00 0.000000000000000000e+00 -1.801585562000000085e+00 3.194084383999999943e+00 0.000000000000000000e+00 -7.115074500000000135e-02 9.005598099999999329e-02 4.690462069999999706e+00
3.717632962000000152e+00 0.000000000000000000e+00 0.000000000000000000e+00 -1.824509040999999998e+00 3.139744873000000158e+00 0.000000000000000000e+00 -2.958979299999999965e-02 -1.145811060000000020e-01 4.477718441000000382e+00
3.699210244000000092e+00 0.000000000000000000e+00 0.000000000000000000e+00 -1.835065909999999967e+00 3.155915602999999958e+00 0.000000000000000000e+00 -2.556858500000000131e-02 -2.316146999999999997e-02 4.508026843999999755e+00
