1.791888839738132511e+00 1.034552074835648705e+00 4.216399983999997936e+00 -2.361979863569648620e-06 2.069100008580107453e+00 1.972869990999969847e+00 1.791888825358170179e+00 1.034552065089449080e+00 1.975759983999997749e+00 -2.347562806227362437e-06 2.069100018351448522e+00 4.219289990999969930e+00
1.898120000000000029e+00 1.171759999999999913e+00 4.222640000000000171e+00 3.973000000000000143e-02 2.186440000000000161e+00 1.969289999999999985e+00 1.846629999999999994e+00 1.120940000000000047e+00 1.970329999999999915e+00 9.404999999999999472e-02 2.253340000000000121e+00 4.228950000000000209e+00
1.909880000000000022e+00 9.836700000000000443e-01 4.264310000000000045e+00 9.657999999999999918e-02 2.087070000000000203e+00 1.996590000000000087e+00 1.856079999999999952e+00 1.035789999999999988e+00 1.989679999999999893e+00 1.370000000000000107e-01 2.041490000000000027e+00 4.273349999999999760e+00
1.775819999999999954e+00 8.931000000000000050e-01 4.147610000000000241e+00 -3.892999999999999933e-02 1.976560000000000095e+00 1.947210000000000107e+00 1.817760000000000042e+00 9.688400000000000345e-01 1.932660000000000045e+00 -5.611000000000000015e-02 1.902030000000000109e+00 4.155719999999999636e+00
1.807369999999999921e+00 9.264999999999999902e-01 4.287099999999999689e+00 2.009000000000000022e-02 2.030780000000000030e+00 2.004199999999999982e+00 1.817960000000000020e+00 9.902699999999999836e-01 2.011839999999999851e+00 8.640000000000000110e-03 1.958960000000000035e+00 4.278909999999999769e+00
1.741579999999999906e+00 1.045069999999999943e+00 4.301829999999999821e+00 8.099999999999999561e-03 2.040270000000000028e+00 2.013529999999999820e+00 1.801230000000000109e+00 1.032909999999999995e+00 2.019330000000000069e+00 -4.388000000000000234e-02 2.061900000000000066e+00 4.314009999999999678e+00
1.801469999999999905e+00 9.978799999999999892e-01 4.323649999999999771e+00 3.040000000000000167e-03 2.033069999999999933e+00 2.017040000000000166e+00 1.774469999999999992e+00 1.009859999999999980e+00 2.026499999999999968e+00 3.735999999999999738e-02 2.025990000000000180e+00 4.320770000000000444e+00
1.839089999999999892e+00 9.951499999999999790e-01 4.179630000000000400e+00 1.593999999999999931e-02 2.073960000000000026e+00 1.958509999999999973e+00 1.784459999999999935e+00 1.026040000000000063e+00 1.955379999999999896e+00 9.091000000000000469e-02 2.040059999999999985e+00 4.174809999999999910e+00
1.819749999999999979e+00 1.040119999999999933e+00 4.161669999999999980e+00 6.090000000000000274e-02 2.076369999999999827e+00 1.948590000000000044e+00 1.782529999999999948e+00 1.023109999999999964e+00 1.945869999999999989e+00 8.570999999999999452e-02 2.072950000000000070e+00 4.168660000000000032e+00
1.717149999999999954e+00 9.660499999999999643e-01 4.310710000000000264e+00 -7.438000000000000167e-02 2.080090000000000217e+00 2.024389999999999912e+00 1.771379999999999955e+00 1.022690000000000099e+00 2.022200000000000220e+00 -1.232800000000000007e-01 2.038030000000000008e+00 4.305240000000000400e+00
1.689850000000000074e+00 9.467400000000000260e-01 4.277339999999999698e+00 -6.174000000000000321e-02 2.061170000000000169e+00 2.008750000000000036e+00 1.759660000000000002e+00 1.021220000000000017e+00 2.000379999999999825e+00 -1.234800000000000064e-01 2.009370000000000100e+00 4.282429999999999737e+00
1.787239999999999940e+00 1.028019999999999934e+00 4.258709999999999773e+00 3.500000000000000073e-03 2.042419999999999902e+00 1.976089999999999902e+00 1.788429999999999964e+00 1.029619999999999980e+00 1.991999999999999993e+00 1.260000000000000009e-02 2.060820000000000096e+00 4.257869999999999600e+00
1.850319999999999965e+00 1.102840000000000042e+00 4.248380000000000045e+00 3.287999999999999950e-02 2.054139999999999855e+00 1.986949999999999994e+00 1.858659999999999979e+00 1.034939999999999971e+00 1.984860000000000069e+00 4.406999999999999806e-02 2.096540000000000070e+00 4.255779999999999674e+00
1.680930000000000035e+00 1.026520000000000099e+00 4.107479999999999798e+00 -9.760000000000000620e-02 2.079450000000000021e+00 1.924790000000000001e+00 1.710460000000000091e+00 1.035279999999999978e+00 1.923019999999999952e+00 -1.427200000000000135e-01 2.064540000000000042e+00 4.117390000000000327e+00
1.877040000000000042e+00 1.010289999999999910e+00 4.214129999999999932e+00 5.285999999999999727e-02 2.030450000000000088e+00 1.986320000000000086e+00 1.850149999999999961e+00 1.024440000000000017e+00 1.988029999999999964e+00 7.212999999999999967e-02 2.020230000000000192e+00 4.217920000000000336e+00
1.812210000000000099e+00 1.017439999999999900e+00 4.261440000000000339e+00 -6.239999999999999887e-03 2.055829999999999824e+00 1.992240000000000011e+00 1.830670000000000019e+00 1.030149999999999899e+00 2.001069999999999904e+00 3.910000000000000281e-03 2.062899999999999956e+00 4.263239999999999696e+00
1.721160000000000023e+00 9.085999999999999632e-01 4.133499999999999730e+00 -8.240000000000000102e-02 1.984580000000000011e+00 1.932739999999999903e+00 1.757239999999999913e+00 9.647000000000000020e-01 1.940220000000000056e+00 -1.258400000000000074e-01 1.939009999999999900e+00 4.142229999999999634e+00
1.883089999999999931e+00 1.132169999999999899e+00 4.106790000000000163e+00 9.429999999999999494e-02 2.138889999999999958e+00 1.914619999999999989e+00 1.838889999999999914e+00 1.087650000000000006e+00 1.939130000000000020e+00 1.230399999999999966e-01 2.176740000000000119e+00 4.122209999999999930e+00
1.898239999999999927e+00 9.028300000000000214e-01 4.328800000000000203e+00 6.252000000000000612e-02 1.976739999999999942e+00 2.031320000000000014e+00 1.870209999999999928e+00 9.560699999999999754e-01 2.027289999999999814e+00 5.904000000000000220e-02 1.907669999999999977e+00 4.326240000000000308e+00
1.633860000000000090e+00 1.121180000000000065e+00 4.096289999999999765e+00 -5.342999999999999833e-02 2.082510000000000083e+00 1.916500000000000092e+00 1.695270000000000055e+00 1.067260000000000097e+00 1.917780000000000040e+00 -1.200100000000000056e-01 2.142389999999999795e+00 4.096470000000000056e+00
1.733980000000000077e+00 9.619100000000000428e-01 4.194950000000000401e+00 -2.561000000000000082e-02 2.001259999999999817e+00 1.959379999999999900e+00 1.766089999999999938e+00 9.877599999999999714e-01 1.967349999999999932e+00 -4.630999999999999700e-02 1.979610000000000092e+00 4.205420000000000158e+00
1.809988827902442976e+00 1.045002095335719305e+00 4.258989983999996731e+00 -2.385651271956797230e-06 2.090000008580059632e+00 1.992789990999970007e+00 1.809988813522434237e+00 1.045002085589488372e+00 1.995709983999997439e+00 -2.371234158138701943e-06 2.090000018351438893e+00 4.261909990999970255e+00
1.931170000000000053e+00 1.178350000000000009e+00 4.209970000000000212e+00 7.933999999999999386e-02 2.195429999999999993e+00 1.969379999999999908e+00 1.885099999999999998e+00 1.128149999999999986e+00 1.970290000000000097e+00 1.476600000000000135e-01 2.253950000000000120e+00 4.200870000000000104e+00
1.675820000000000087e+00 1.011730000000000018e+00 4.297690000000000232e+00 -9.069000000000000672e-02 2.041389999999999816e+00 2.027719999999999967e+00 1.747049999999999992e+00 1.021539999999999893e+00 2.003600000000000048e+00 -1.400599999999999901e-01 2.025929999999999787e+00 4.305039999999999978e+00
1.756590000000000096e+00 1.107290000000000108e+00 4.230240000000000222e+00 -5.303000000000000075e-02 2.156789999999999985e+00 1.977079999999999949e+00 1.734779999999999989e+00 1.072780000000000067e+00 1.989810000000000079e+00 -3.075999999999999915e-02 2.190819999999999990e+00 4.231230000000000047e+00
1.840479999999999894e+00 9.589100000000000401e-01 4.326810000000000045e+00 2.216999999999999874e-02 2.081220000000000070e+00 2.036000000000000032e+00 1.846349999999999936e+00 1.016299999999999981e+00 2.024950000000000028e+00 -4.380000000000000213e-03 2.009580000000000144e+00 4.351180000000000270e+00
1.680639999999999912e+00 1.019039999999999946e+00 4.241200000000000081e+00 -8.157999999999999974e-02 2.054949999999999832e+00 1.982520000000000060e+00 1.741090000000000027e+00 1.024370000000000003e+00 1.986250000000000071e+00 -1.410599999999999909e-01 2.040059999999999985e+00 4.243610000000000326e+00
1.700930000000000053e+00 9.399199999999999777e-01 4.151709999999999567e+00 -1.180000000000000059e-03 2.035890000000000200e+00 1.932809999999999917e+00 1.739549999999999930e+00 9.913999999999999480e-01 1.943640000000000034e+00 -4.923000000000000292e-02 1.974569999999999936e+00 4.149230000000000196e+00
1.782410000000000050e+00 1.061669999999999892e+00 4.351350000000000051e+00 2.375999999999999987e-02 2.098970000000000002e+00 2.037549999999999972e+00 1.777260000000000062e+00 1.045889999999999986e+00 2.039940000000000087e+00 3.812999999999999723e-02 2.106590000000000185e+00 4.362870000000000026e+00
1.772410000000000041e+00 1.109210000000000029e+00 4.147750000000000270e+00 4.279999999999999950e-03 2.096150000000000180e+00 1.928279999999999994e+00 1.824049999999999949e+00 1.064159999999999995e+00 1.939289999999999958e+00 -4.091999999999999804e-02 2.139279999999999848e+00 4.128210000000000157e+00
1.857639999999999958e+00 1.089739999999999931e+00 4.211700000000000443e+00 4.632000000000000006e-02 2.114149999999999974e+00 1.967359999999999998e+00 1.866360000000000019e+00 1.057749999999999968e+00 1.963619999999999921e+00 2.637000000000000108e-02 2.139569999999999972e+00 4.211039999999999672e+00
1.799269999999999925e+00 9.216400000000000148e-01 4.237890000000000157e+00 4.211999999999999772e-02 1.993649999999999922e+00 1.984380000000000033e+00 1.799960000000000004e+00 9.722699999999999676e-01 1.994310000000000027e+00 1.336999999999999994e-02 1.934549999999999992e+00 4.235459999999999781e+00
1.871099999999999985e+00 9.505500000000000060e-01 4.364930000000000199e+00 7.963000000000000633e-02 2.055759999999999810e+00 2.056960000000000122e+00 1.839920000000000000e+00 1.002760000000000096e+00 2.037729999999999819e+00 1.029299999999999937e-01 2.015649999999999942e+00 4.384739999999999860e+00
1.655280000000000085e+00 1.001160000000000050e+00 4.182129999999999903e+00 -9.790000000000000091e-02 2.043140000000000178e+00 1.950749999999999984e+00 1.713810000000000056e+00 1.021470000000000100e+00 1.942139999999999977e+00 -1.563199999999999867e-01 2.043759999999999799e+00 4.181490000000000151e+00
1.739740000000000064e+00 1.054680000000000062e+00 4.231090000000000018e+00 3.697000000000000286e-02 2.083870000000000111e+00 1.990459999999999896e+00 1.770599999999999952e+00 1.047989999999999977e+00 1.982769999999999921e+00 -2.452999999999999972e-02 2.093669999999999920e+00 4.240980000000000416e+00
1.691310000000000091e+00 1.109680000000000000e+00 4.206380000000000230e+00 -1.026900000000000035e-01 2.162069999999999936e+00 1.961470000000000047e+00 1.737219999999999986e+00 1.085129999999999928e+00 1.972730000000000095e+00 -1.641100000000000059e-01 2.184969999999999857e+00 4.203700000000000436e+00
1.815180000000000016e+00 9.448600000000000332e-01 4.281600000000000072e+00 4.306999999999999718e-02 2.051590000000000025e+00 1.997619999999999951e+00 1.842479999999999896e+00 9.972400000000000153e-01 2.010699999999999932e+00 2.407000000000000112e-02 1.977360000000000007e+00 4.281060000000000088e+00
1.778410000000000046e+00 1.126530000000000031e+00 4.240529999999999688e+00 1.750000000000000036e-03 2.098339999999999872e+00 1.975549999999999917e+00 1.774839999999999973e+00 1.074040000000000106e+00 1.985340000000000105e+00 -1.128999999999999969e-02 2.160179999999999989e+00 4.239220000000000432e+00
1.897059999999999969e+00 1.178800000000000070e+00 4.310970000000000191e+00 -2.733999999999999972e-02 2.157039999999999846e+00 2.016119999999999912e+00 1.866759999999999975e+00 1.121459999999999901e+00 2.031789999999999985e+00 5.680000000000000153e-03 2.241260000000000030e+00 4.331439999999999735e+00
1.836819999999999897e+00 9.696900000000000519e-01 4.376019999999999577e+00 -8.460000000000000506e-03 2.022029999999999994e+00 2.042679999999999829e+00 1.845550000000000024e+00 9.901299999999999546e-01 2.031839999999999868e+00 -1.362999999999999975e-02 1.996550000000000047e+00 4.381999999999999673e+00
1.844759999999999955e+00 1.019409999999999927e+00 4.207690000000000374e+00 3.844999999999999807e-02 2.063369999999999926e+00 1.966460000000000097e+00 1.808850000000000069e+00 1.019819999999999949e+00 1.966650000000000009e+00 8.419999999999999707e-02 2.040659999999999918e+00 4.195190000000000197e+00
1.765730000000000022e+00 9.255799999999999583e-01 4.221840000000000259e+00 -5.579999999999999891e-03 2.019309999999999938e+00 1.976499999999999924e+00 1.814459999999999962e+00 9.908099999999999685e-01 1.974609999999999976e+00 -6.112999999999999684e-02 1.956429999999999891e+00 4.214419999999999611e+00
1.828088815778077691e+00 1.055452116335788615e+00 4.301579983999997303e+00 -2.409899966623419726e-06 2.110900008580054443e+00 2.012719990999969788e+00 1.828088801398086716e+00 1.055452106589569672e+00 2.015669983999996528e+00 -2.395482860354922745e-06 2.110900018351428820e+00 4.304529990999969691e+00
1.843220000000000081e+00 1.017179999999999973e+00 4.421490000000000364e+00 -3.797999999999999987e-02 2.063079999999999803e+00 2.062539999999999818e+00 1.816310000000000091e+00 1.032270000000000021e+00 2.077370000000000161e+00 -1.108999999999999916e-02 2.071959999999999802e+00 4.413389999999999702e+00
1.979889999999999928e+00 1.158700000000000063e+00 4.359820000000000029e+00 8.759999999999999731e-02 2.199990000000000112e+00 2.042759999999999909e+00 1.925380000000000091e+00 1.115899999999999892e+00 2.049549999999999983e+00 1.223400000000000043e-01 2.219679999999999875e+00 4.354899999999999771e+00
1.751549999999999940e+00 1.023560000000000025e+00 4.335029999999999717e+00 -3.219999999999999946e-02 2.099730000000000096e+00 2.030419999999999892e+00 1.753489999999999993e+00 1.040689999999999893e+00 2.038040000000000074e+00 -2.539999999999999897e-02 2.081010000000000026e+00 4.328030000000000044e+00
1.827790000000000026e+00 9.675000000000000266e-01 4.204629999999999868e+00 -4.741999999999999688e-02 2.108919999999999906e+00 1.971370000000000067e+00 1.848090000000000011e+00 1.034769999999999968e+00 1.978080000000000060e+00 -8.673000000000000154e-02 2.057160000000000100e+00 4.207550000000000345e+00
1.791449999999999987e+00 1.089409999999999989e+00 4.410090000000000288e+00 5.120999999999999858e-02 2.120389999999999997e+00 2.063709999999999933e+00 1.801330000000000098e+00 1.071190000000000087e+00 2.075410000000000199e+00 2.080999999999999864e-02 2.141360000000000152e+00 4.418569999999999887e+00
1.826070000000000082e+00 1.013929999999999998e+00 4.228360000000000340e+00 -1.821000000000000049e-02 2.079209999999999781e+00 1.974529999999999896e+00 1.852740000000000054e+00 1.019269999999999898e+00 1.976839999999999931e+00 -3.013000000000000053e-02 2.053110000000000213e+00 4.223370000000000068e+00
1.840829999999999966e+00 9.453899999999999526e-01 4.183329999999999771e+00 2.267999999999999877e-02 2.031499999999999861e+00 1.960139999999999993e+00 1.853250000000000064e+00 9.770199999999999996e-01 1.963759999999999950e+00 -3.550000000000000204e-03 1.974760000000000071e+00 4.189079999999999693e+00
1.780030000000000001e+00 1.168819999999999970e+00 4.309879999999999711e+00 -7.315000000000000668e-02 2.198370000000000157e+00 2.019350000000000200e+00 1.794699999999999962e+00 1.121059999999999945e+00 2.026920000000000055e+00 -7.026000000000000301e-02 2.255170000000000119e+00 4.316740000000000244e+00
1.973190000000000000e+00 1.122430000000000039e+00 4.358039999999999914e+00 9.482999999999999763e-02 2.179269999999999818e+00 2.030180000000000096e+00 1.909210000000000074e+00 1.110849999999999893e+00 2.043200000000000127e+00 1.573700000000000099e-01 2.212530000000000108e+00 4.359029999999999738e+00
1.897329999999999961e+00 1.031889999999999974e+00 4.408750000000000391e+00 5.525999999999999662e-02 2.068430000000000213e+00 2.079079999999999817e+00 1.864610000000000101e+00 1.037649999999999961e+00 2.072550000000000114e+00 9.321000000000000119e-02 2.071810000000000151e+00 4.418639999999999901e+00
1.724150000000000071e+00 1.110460000000000003e+00 4.234230000000000160e+00 -2.412999999999999867e-02 2.103089999999999904e+00 1.973670000000000035e+00 1.763400000000000079e+00 1.069970000000000088e+00 1.987260000000000026e+00 -7.896999999999999853e-02 2.138749999999999929e+00 4.240389999999999660e+00
1.700800000000000090e+00 9.941600000000000437e-01 4.189530000000000420e+00 -9.031000000000000139e-02 2.056249999999999911e+00 1.973700000000000010e+00 1.744739999999999958e+00 1.013050000000000006e+00 1.965130000000000043e+00 -1.074900000000000022e-01 2.030460000000000154e+00 4.182520000000000238e+00
1.885099999999999998e+00 1.130260000000000042e+00 4.205400000000000027e+00 1.450000000000000074e-02 2.105799999999999894e+00 1.961179999999999923e+00 1.826670000000000016e+00 1.074659999999999949e+00 1.968360000000000110e+00 7.489999999999999436e-02 2.151250000000000107e+00 4.223410000000000331e+00
1.732420000000000071e+00 1.049930000000000030e+00 4.360190000000000232e+00 -5.453999999999999820e-02 2.115139999999999798e+00 2.038790000000000102e+00 1.745430000000000037e+00 1.052640000000000020e+00 2.043359999999999843e+00 -8.555999999999999717e-02 2.100800000000000001e+00 4.355889999999999596e+00
1.702509999999999968e+00 1.094910000000000050e+00 4.209220000000000184e+00 -5.190999999999999781e-02 2.089649999999999785e+00 1.965929999999999955e+00 1.753449999999999953e+00 1.063539999999999930e+00 1.979160000000000030e+00 -1.108699999999999963e-01 2.129729999999999901e+00 4.221580000000000332e+00
1.868090000000000028e+00 1.176989999999999981e+00 4.339249999999999829e+00 5.464999999999999719e-02 2.175609999999999822e+00 2.024210000000000065e+00 1.844959999999999933e+00 1.106999999999999984e+00 2.025869999999999838e+00 9.626999999999999447e-02 2.251189999999999802e+00 4.347170000000000201e+00
1.773379999999999956e+00 9.650999999999999579e-01 4.222500000000000142e+00 -3.837999999999999745e-02 2.038180000000000103e+00 1.969400000000000039e+00 1.816019999999999968e+00 1.010289999999999910e+00 1.979479999999999906e+00 -8.551999999999999880e-02 1.994180000000000064e+00 4.214579999999999771e+00
1.816140000000000088e+00 1.159489999999999910e+00 4.410590000000000011e+00 1.809999999999999977e-03 2.163829999999999920e+00 2.057279999999999998e+00 1.833139999999999992e+00 1.095339999999999980e+00 2.068229999999999791e+00 -3.085999999999999854e-02 2.213830000000000187e+00 4.411010000000000097e+00
1.841339999999999977e+00 9.370600000000000041e-01 4.207360000000000433e+00 9.220000000000000764e-03 2.048840000000000217e+00 1.964939999999999909e+00 1.861560000000000104e+00 1.005819999999999936e+00 1.981190000000000007e+00 -4.720000000000000237e-03 1.992289999999999894e+00 4.222789999999999822e+00
1.831860000000000044e+00 1.028950000000000031e+00 4.233389999999999986e+00 -1.088000000000000078e-02 2.101820000000000022e+00 1.986019999999999897e+00 1.843350000000000044e+00 1.043400000000000105e+00 1.987170000000000103e+00 -2.773000000000000118e-02 2.082059999999999800e+00 4.238170000000000215e+00
