-3.617200027999999890e+01
-3.632410295999999761e+01
-3.628279768000000161e+01
-3.606353440000000177e+01
-3.627076734999999985e+01
-3.611830948000000063e+01
-3.594717562000000299e+01
-3.599253725999999887e+01
-3.588618178000000114e+01
-3.635411174000000045e+01
-3.633461625000000339e+01
-3.611022936999999899e+01
-3.607860543000000320e+01
-3.608075346999999766e+01
-3.610637865999999718e+01
-3.625682738999999799e+01
-3.602976493999999974e+01
-3.610919206999999886e+01
-3.620327813000000106e+01
-3.564834653999999858e+01
-3.594097053000000130e+01
-3.629766977999999966e+01
-3.629590444000000105e+01
-3.613816882999999791e+01
-3.621499081000000331e+01
-3.636461947000000094e+01
-3.617409047999999672e+01
-3.598089697999999714e+01
-3.615248867999999760e+01
-3.620316362999999882e+01
-3.636166885000000093e+01
-3.608545924999999954e+01
-3.623271814000000290e+01
-3.603214516999999972e+01
-3.609276968000000352e+01
-3.631813230000000203e+01
-3.630769298999999961e+01
-3.607271605999999764e+01
-3.635456218000000206e+01
-3.626581197000000145e+01
-3.605040361999999732e+01
-3.628055588000000142e+01
-3.636727711000000340e+01
-3.625993717000000061e+01
-3.635533827999999801e+01
-3.625289776999999702e+01
-3.638370221000000271e+01
-3.623385083000000151e+01
-3.636765864000000192e+01
-3.629504461999999876e+01
-3.635353113000000036e+01
-3.635237024999999988e+01
-3.625604043999999959e+01
-3.618027241000000060e+01
-3.614720705999999950e+01
-3.606900711000000115e+01
-3.629350724999999755e+01
-3.615010038999999864e+01
-3.629083872000000355e+01
-3.632594965999999914e+01
-3.633014728999999932e+01
-3.634666993999999818e+01
-3.637629706999999968e+01
