-2.999981389516021587e-06 -9.999916073652241980e-07 2.721000000023602976e-03 2.000016327978843081e-06 1.000014139676501179e-06 2.722999999982814688e-03 -1.200002202139127208e-05 3.999974414081251180e-06 -2.715999999940385459e-03 1.299998708292844932e-05 -3.999996946392528161e-06 -2.728000000066032205e-03
1.132149999999999962e-01 7.749499999999999444e-02 -2.359199999999999839e-02 -8.552400000000000280e-02 1.033659999999999995e-01 3.559699999999999670e-02 7.705099999999999449e-02 -1.833509999999999862e-01 1.341509999999999925e-01 -1.047430000000000028e-01 2.490000000000000026e-03 -1.461560000000000081e-01
1.553319999999999979e-01 -3.200020000000000087e-01 1.730500000000000094e-02 -3.340629999999999988e-01 4.022419999999999884e-01 -1.552500000000000061e-02 3.651119999999999921e-01 -5.324090000000000211e-01 1.141279999999999933e-01 -1.863809999999999911e-01 4.501689999999999858e-01 -1.159089999999999981e-01
1.244559999999999972e-01 6.811270000000000380e-01 7.328099999999999892e-02 1.864530000000000076e-01 -6.622160000000000268e-01 -8.916200000000000514e-02 -2.059799999999999964e-01 7.187989999999999657e-01 2.449719999999999953e-01 -1.049279999999999935e-01 -7.377089999999999481e-01 -2.290909999999999891e-01
9.796299999999999453e-02 -8.638700000000000545e-02 -3.137500000000000011e-02 -1.085639999999999938e-01 -1.560899999999999961e-02 3.054499999999999924e-02 9.564799999999999691e-02 -4.991500000000000103e-02 -1.552920000000000134e-01 -8.504699999999999760e-02 1.519109999999999905e-01 1.561220000000000108e-01
4.200679999999999970e-01 5.872650000000000370e-01 1.372100000000000056e-02 -3.196899999999999742e-01 -4.449790000000000134e-01 -2.621300000000000019e-02 3.852059999999999929e-01 4.828950000000000187e-01 6.812799999999999412e-02 -4.855849999999999889e-01 -6.251809999999999867e-01 -5.563599999999999796e-02
-7.700899999999999412e-02 1.647710000000000008e-01 -5.167900000000000271e-02 1.978320000000000078e-01 -7.959600000000000009e-02 3.996100000000000346e-02 -1.792120000000000102e-01 9.337299999999999767e-02 -5.165700000000000153e-02 5.838900000000000340e-02 -1.785480000000000123e-01 6.337500000000000078e-02
-1.680900000000000102e-02 -5.519519999999999982e-01 -1.448799999999999914e-02 3.353430000000000022e-01 5.183799999999999519e-01 2.588000000000000023e-03 -3.707889999999999797e-01 -6.905200000000000227e-01 -9.377999999999999184e-03 5.225500000000000284e-02 7.240929999999999866e-01 2.127799999999999830e-02
2.294110000000000038e-01 -2.535200000000000231e-01 -1.401499999999999968e-02 -4.123539999999999983e-01 -5.942100000000000160e-02 2.067599999999999993e-02 4.225200000000000067e-01 3.926999999999999935e-03 1.462769999999999904e-01 -2.395780000000000132e-01 3.090140000000000109e-01 -1.529379999999999906e-01
-6.535900000000000043e-02 2.122299999999999881e-02 1.980700000000000169e-02 1.284909999999999941e-01 1.409729999999999872e-01 -2.052299999999999958e-02 -2.613800000000000012e-01 -1.379890000000000005e-01 -1.148490000000000066e-01 1.982480000000000075e-01 -2.420800000000000035e-02 1.155660000000000021e-01
7.334699999999999553e-02 -1.050129999999999952e-01 5.315299999999999886e-02 1.960100000000000037e-02 3.492910000000000181e-01 -5.308000000000000218e-02 -4.843499999999999889e-02 -3.938200000000000034e-01 4.202100000000000279e-02 -4.451299999999999701e-02 1.495410000000000073e-01 -4.209399999999999947e-02
1.680280000000000107e-01 1.560070000000000068e-01 -1.177030000000000021e-01 -2.010100000000000081e-02 1.388909999999999867e-01 1.188489999999999963e-01 -9.783000000000000029e-03 -1.016289999999999971e-01 1.973700000000000107e-02 -1.381439999999999890e-01 -1.932689999999999964e-01 -2.088299999999999879e-02
3.030189999999999828e-01 4.684189999999999743e-01 1.054000000000000032e-03 -3.841499999999999776e-02 -8.832060000000000466e-01 1.610000000000000103e-04 6.597400000000000486e-02 1.099196999999999980e+00 6.217500000000000110e-02 -3.305790000000000117e-01 -6.844099999999999628e-01 -6.339000000000000190e-02
-4.855260000000000131e-01 -3.215399999999999925e-01 4.887199999999999878e-02 2.673789999999999778e-01 2.322319999999999940e-01 -2.033799999999999844e-02 -2.769369999999999887e-01 -2.524569999999999870e-01 2.914900000000000130e-02 4.950840000000000241e-01 3.417640000000000122e-01 -5.768299999999999816e-02
1.398050000000000126e-01 4.689630000000000187e-01 9.717800000000000049e-02 -2.458930000000000005e-01 -4.074139999999999984e-01 -9.283800000000000385e-02 3.141399999999999748e-01 4.132149999999999990e-01 -1.768560000000000132e-01 -2.080519999999999869e-01 -4.747640000000000193e-01 1.725160000000000027e-01
2.607119999999999993e-01 5.021729999999999805e-01 -2.957500000000000059e-02 8.795899999999999552e-02 -2.346699999999999897e-01 3.572100000000000275e-02 -1.032280000000000003e-01 2.875489999999999990e-01 -3.104000000000000162e-02 -2.454429999999999945e-01 -5.550519999999999898e-01 2.489299999999999846e-02
-3.007219999999999893e-01 5.464200000000000168e-01 2.531500000000000070e-02 2.088679999999999981e-01 -3.927640000000000020e-01 1.640899999999999997e-02 -2.808350000000000013e-01 5.639889999999999626e-01 1.938300000000000092e-02 3.726889999999999925e-01 -7.176449999999999774e-01 -6.110700000000000159e-02
2.661060000000000092e-01 -3.527540000000000120e-01 3.033900000000000138e-02 -4.654010000000000091e-01 2.850289999999999768e-01 1.207290000000000030e-01 5.585729999999999862e-01 -3.855430000000000246e-01 -1.124489999999999934e-01 -3.592779999999999863e-01 4.532680000000000042e-01 -3.861900000000000055e-02
-6.434900000000000342e-02 3.199870000000000214e-01 4.729099999999999970e-02 -3.341390000000000193e-01 -5.447210000000000107e-01 -4.256900000000000267e-02 3.698290000000000188e-01 6.547190000000000509e-01 -2.606999999999999942e-02 2.865900000000000045e-02 -4.299850000000000061e-01 2.134799999999999892e-02
-2.625500000000000056e-02 -3.232299999999999757e-02 4.400000000000000265e-03 -6.120600000000000346e-02 1.317560000000000120e-01 4.510000000000000120e-04 5.298900000000000138e-02 -1.379890000000000005e-01 -9.764999999999999375e-03 3.447200000000000264e-02 3.855499999999999899e-02 4.915000000000000098e-03
1.072449999999999931e-01 4.650940000000000074e-01 6.990999999999999819e-03 6.406000000000000583e-02 -3.959420000000000162e-01 2.428000000000000037e-03 -5.348000000000000323e-03 4.772680000000000256e-01 4.574700000000000294e-02 -1.659569999999999934e-01 -5.464189999999999880e-01 -5.516599999999999976e-02
3.000005996428926700e-06 2.000009062198294184e-06 1.304999999972326560e-03 1.172766745877760646e-11 -2.999994384658758308e-06 1.304000000012918740e-03 -1.100001974757922430e-05 9.999981770568258009e-06 -1.301999999973172490e-03 9.000003177353828744e-06 -9.999995296282860571e-06 -1.306000000014120302e-03
2.137249999999999983e-01 -3.748100000000000043e-02 -5.613800000000000040e-02 4.591300000000000242e-02 1.274220000000000075e-01 3.886499999999999677e-02 -2.514699999999999921e-02 -2.712720000000000131e-01 -2.285999999999999838e-02 -2.344910000000000050e-01 1.813309999999999922e-01 4.013300000000000201e-02
-9.221000000000000030e-02 1.929819999999999869e-01 1.182180000000000036e-01 3.978800000000000114e-01 -2.666930000000000134e-01 -1.054889999999999994e-01 -4.343949999999999756e-01 2.421800000000000064e-01 1.586049999999999960e-01 1.287260000000000071e-01 -1.684690000000000076e-01 -1.713339999999999863e-01
-3.383490000000000109e-01 -3.486480000000000135e-01 -2.556200000000000139e-02 3.440219999999999945e-01 3.421290000000000164e-01 4.134499999999999981e-02 -3.210210000000000008e-01 -3.491279999999999939e-01 -6.598999999999999311e-02 3.153469999999999884e-01 3.556469999999999909e-01 5.020600000000000063e-02
-3.735100000000000225e-02 -1.337200000000000021e-02 1.388860000000000094e-01 -1.813089999999999979e-01 -1.354680000000000051e-01 -1.398079999999999878e-01 2.005139999999999978e-01 3.725300000000000139e-02 1.971370000000000067e-01 1.814599999999999894e-02 1.115870000000000056e-01 -1.962139999999999995e-01
-1.258680000000000077e-01 1.152269999999999961e-01 -2.147299999999999903e-02 1.374730000000000119e-01 -2.509190000000000031e-01 2.485000000000000056e-02 -2.212530000000000052e-01 2.253920000000000090e-01 7.583000000000000330e-03 2.096480000000000010e-01 -8.970000000000000195e-02 -1.095999999999999926e-02
1.369380000000000042e-01 -2.794570000000000110e-01 -6.804499999999999438e-02 -2.754730000000000234e-01 1.417680000000000051e-01 8.514599999999999946e-02 3.099770000000000025e-01 -2.344299999999999995e-01 -4.957700000000000301e-02 -1.714420000000000111e-01 3.721200000000000063e-01 3.247499999999999692e-02
2.241690000000000071e-01 -3.320239999999999858e-01 2.538999999999999937e-02 -8.318799999999999806e-02 2.128349999999999964e-01 -4.680900000000000338e-02 6.706399999999999861e-02 -2.383409999999999973e-01 5.790700000000000014e-02 -2.080450000000000077e-01 3.575300000000000145e-01 -3.648699999999999860e-02
3.683290000000000175e-01 3.296919999999999851e-01 -1.505599999999999994e-01 -2.940510000000000068e-01 -3.580920000000000214e-01 1.223680000000000045e-01 3.555610000000000159e-01 4.740360000000000129e-01 -1.440420000000000034e-01 -4.298390000000000266e-01 -4.456350000000000033e-01 1.722339999999999982e-01
1.635030000000000094e-01 1.016240000000000060e-01 -6.203000000000000180e-03 -2.794820000000000082e-01 -1.715919999999999945e-01 -3.096999999999999927e-03 3.275959999999999983e-01 3.071490000000000054e-01 4.626500000000000057e-02 -2.116169999999999995e-01 -2.371810000000000029e-01 -3.696499999999999786e-02
6.183999999999999914e-02 5.763700000000000073e-02 9.381999999999999715e-03 -4.712509999999999755e-01 -1.720109999999999972e-01 -8.800000000000000530e-03 4.639400000000000190e-01 1.492660000000000098e-01 -1.712740000000000096e-01 -5.452900000000000108e-02 -3.489099999999999840e-02 1.706910000000000094e-01
1.175500000000000017e-01 -1.547550000000000037e-01 1.189290000000000069e-01 -2.285899999999999876e-01 3.128210000000000157e-01 -1.180169999999999969e-01 1.892719999999999958e-01 -2.891320000000000001e-01 2.361749999999999960e-01 -7.823299999999999699e-02 1.310649999999999871e-01 -2.370869999999999922e-01
-2.688479999999999759e-01 2.723999999999999755e-01 -1.075720000000000010e-01 2.799490000000000034e-01 3.683299999999999769e-02 9.165900000000000436e-02 -3.200879999999999836e-01 -6.640000000000000069e-03 2.715540000000000176e-01 3.089870000000000116e-01 -3.025930000000000009e-01 -2.556410000000000071e-01
1.200569999999999971e-01 1.632199999999999970e-02 9.781900000000000317e-02 -5.751439999999999886e-01 4.670900000000000052e-02 -9.749199999999999533e-02 5.860119999999999774e-01 -1.165410000000000057e-01 6.673199999999999965e-02 -1.309250000000000136e-01 5.351000000000000201e-02 -6.705800000000000649e-02
-4.177779999999999827e-01 -2.031969999999999887e-01 -5.907400000000000151e-02 2.357980000000000076e-01 1.730130000000000001e-01 7.672700000000000353e-02 -3.944940000000000113e-01 -1.802739999999999898e-01 -9.459599999999999953e-02 5.764730000000000132e-01 2.104570000000000052e-01 7.694399999999999851e-02
3.901350000000000096e-01 2.280300000000000035e-02 -2.095899999999999846e-02 -2.769320000000000115e-01 -2.971679999999999877e-01 2.462299999999999905e-02 3.515699999999999936e-01 2.392710000000000115e-01 -1.022829999999999989e-01 -4.647740000000000204e-01 3.509400000000000019e-02 9.861899999999999833e-02
-1.784100000000000130e-01 3.704099999999999754e-02 -4.349200000000000288e-02 -7.144599999999999562e-02 1.004700000000000037e-01 4.342399999999999732e-02 3.295000000000000186e-03 -9.483400000000000163e-02 -5.540500000000000286e-02 2.465610000000000024e-01 -4.267699999999999966e-02 5.547200000000000047e-02
-3.170319999999999805e-01 3.082000000000000104e-03 3.917899999999999855e-02 3.655979999999999785e-01 2.771100000000000230e-01 -3.033699999999999938e-02 -4.582450000000000134e-01 -1.537610000000000088e-01 1.675700000000000106e-02 4.096790000000000154e-01 -1.264319999999999888e-01 -2.559900000000000023e-02
3.119999999999999857e-02 4.794320000000000248e-01 2.820599999999999843e-02 1.014499999999999950e-02 -5.490699999999999470e-01 -2.387299999999999839e-02 2.071599999999999830e-02 6.780030000000000223e-01 2.152310000000000056e-01 -6.206199999999999911e-02 -6.083650000000000446e-01 -2.195630000000000082e-01
1.224940000000000057e-01 -3.589700000000000113e-01 -7.023000000000000076e-02 2.882699999999999846e-02 3.417499999999999705e-02 5.777899999999999703e-02 -2.139699999999999935e-02 -4.372199999999999698e-02 -4.718699999999999978e-02 -1.299230000000000107e-01 3.685180000000000122e-01 5.963799999999999657e-02
6.618799999999999684e-02 1.067739999999999939e-01 -1.130899999999999961e-02 -1.494369999999999865e-01 -7.698900000000000188e-02 -2.773999999999999990e-03 5.618200000000000277e-02 7.659399999999999542e-02 -2.813799999999999982e-02 2.706799999999999831e-02 -1.063800000000000023e-01 4.222200000000000258e-02
1.000003626181929527e-06 -9.999971724948426494e-07 3.939999999979728489e-04 -9.769742197513401363e-13 3.000001671331463365e-06 3.919999999872091664e-04 -1.500000937068265970e-05 5.999981101214069042e-06 -3.949999999312209307e-04 1.400000557383109983e-05 -6.999985600051347312e-06 -3.910000000582248181e-04
-2.557249999999999801e-01 3.343599999999999905e-01 -7.629500000000000171e-02 2.656769999999999965e-01 -2.112999999999999948e-02 6.650100000000000455e-02 -2.761970000000000258e-01 8.757500000000000007e-02 -1.409289999999999987e-01 2.662450000000000094e-01 -4.008050000000000224e-01 1.507239999999999969e-01
-1.389199999999999983e-02 -2.715700000000000058e-02 -3.046600000000000003e-02 -1.640409999999999924e-01 -1.869949999999999946e-01 3.303099999999999786e-02 2.792200000000000237e-01 1.084159999999999985e-01 -1.215709999999999985e-01 -1.012870000000000020e-01 1.057359999999999967e-01 1.190060000000000007e-01
-1.105800000000000012e-02 -3.307499999999999885e-01 -2.519300000000000012e-02 1.320830000000000060e-01 3.112449999999999939e-01 2.455900000000000097e-02 -1.357150000000000023e-01 -4.009429999999999938e-01 -1.653979999999999895e-01 1.468900000000000067e-02 4.204479999999999884e-01 1.660320000000000129e-01
-1.663179999999999936e-01 9.806999999999999745e-03 2.165800000000000017e-02 1.114300000000000013e-02 1.130759999999999960e-01 5.373000000000000172e-03 -1.414030000000000009e-01 -6.247699999999999781e-02 -8.727699999999999347e-02 2.965789999999999815e-01 -6.040700000000000236e-02 6.024499999999999994e-02
1.606190000000000118e-01 -2.031769999999999965e-01 -1.488500000000000066e-02 -4.416880000000000250e-01 2.484870000000000134e-01 -1.957100000000000159e-02 3.806629999999999736e-01 -2.868290000000000006e-01 -2.572500000000000134e-02 -9.959400000000000197e-02 2.415190000000000115e-01 6.018099999999999838e-02
1.044100000000000063e-02 1.660100000000000117e-02 -3.930199999999999666e-02 1.418959999999999944e-01 -2.483609999999999984e-01 3.345000000000000057e-02 -2.376709999999999934e-01 3.488729999999999887e-01 -1.567599999999999896e-02 8.533399999999999319e-02 -1.171129999999999949e-01 2.152799999999999853e-02
5.818799999999999667e-02 1.415839999999999876e-01 3.820199999999999985e-02 -2.041749999999999954e-01 -4.455779999999999741e-01 -1.579500000000000001e-02 2.002019999999999911e-01 5.907919999999999838e-01 1.408900000000000083e-02 -5.421499999999999930e-02 -2.867979999999999974e-01 -3.649600000000000066e-02
-2.194730000000000014e-01 6.740799999999999570e-02 1.815999999999999906e-02 4.196079999999999810e-01 4.263399999999999829e-02 -1.418699999999999996e-02 -4.144379999999999731e-01 -1.206219999999999931e-01 -4.349800000000000194e-02 2.143029999999999935e-01 1.058000000000000086e-02 3.952599999999999864e-02
1.181050000000000016e-01 -8.763200000000000156e-02 -5.976200000000000262e-02 -1.431759999999999977e-01 2.872390000000000221e-01 6.033299999999999774e-02 2.708650000000000224e-01 -3.265170000000000017e-01 -5.363899999999999918e-02 -2.457940000000000125e-01 1.269099999999999950e-01 5.306799999999999712e-02
1.481129999999999947e-01 2.338109999999999911e-01 8.635199999999999820e-02 -8.491799999999999349e-02 -1.155820000000000042e-01 -9.224400000000000654e-02 2.032490000000000130e-01 1.093240000000000045e-01 1.744000000000000107e-03 -2.664440000000000142e-01 -2.275540000000000063e-01 4.146999999999999645e-03
-3.282100000000000295e-02 5.860999999999999890e-03 -3.616500000000000270e-02 -1.807699999999999863e-01 -7.247800000000000076e-02 4.838900000000000146e-02 1.107520000000000032e-01 5.942599999999999966e-02 -2.379799999999999971e-02 1.028389999999999999e-01 7.191000000000000343e-03 1.157399999999999922e-02
-5.930599999999999761e-02 1.424670000000000103e-01 5.958700000000000108e-02 4.141909999999999759e-01 -2.315790000000000071e-01 -8.394500000000000572e-02 -3.838599999999999790e-01 2.482109999999999872e-01 -1.221509999999999957e-01 2.897500000000000075e-02 -1.590999999999999914e-01 1.465090000000000003e-01
-2.062120000000000064e-01 8.030400000000000038e-02 -2.452999999999999972e-02 2.303159999999999930e-01 -2.295770000000000033e-01 5.056000000000000077e-02 -2.729929999999999857e-01 1.956050000000000011e-01 2.205219999999999958e-01 2.488889999999999991e-01 -4.633199999999999819e-02 -2.465519999999999934e-01
-2.877100000000000213e-01 -2.910010000000000097e-01 -3.146399999999999891e-02 4.911000000000000087e-02 1.436780000000000002e-01 2.974999999999999867e-02 -5.378299999999999748e-02 -2.382890000000000008e-01 -6.629799999999999582e-02 2.923830000000000040e-01 3.856109999999999816e-01 6.801200000000000301e-02
-7.279900000000000260e-02 3.066470000000000029e-01 -1.829599999999999976e-02 -3.301699999999999774e-02 -1.828019999999999923e-01 4.836900000000000227e-02 1.148490000000000066e-01 2.207669999999999910e-01 2.412699999999999914e-02 -9.034000000000000363e-03 -3.446110000000000007e-01 -5.419999999999999818e-02
1.744269999999999987e-01 -2.260949999999999904e-01 -3.159999999999999832e-04 5.917000000000000037e-02 2.900130000000000208e-01 -5.747999999999999637e-03 -9.824600000000000000e-02 -2.591530000000000222e-01 1.219429999999999958e-01 -1.353509999999999991e-01 1.952359999999999929e-01 -1.158789999999999959e-01
-6.790300000000000502e-02 1.917929999999999913e-01 -5.119699999999999945e-02 1.752499999999999891e-02 -1.772650000000000059e-01 5.428600000000000092e-02 -3.185700000000000337e-02 1.884959999999999969e-01 -1.165950000000000042e-01 8.223600000000000354e-02 -2.030250000000000110e-01 1.135059999999999958e-01
-5.160999999999999789e-03 -9.697300000000000364e-02 -4.802599999999999925e-02 -1.493780000000000108e-01 -4.546000000000000041e-02 3.928000000000000241e-02 2.632880000000000220e-01 1.461770000000000014e-01 -3.425799999999999679e-02 -1.087489999999999984e-01 -3.743999999999999932e-03 4.300400000000000056e-02
1.039930000000000021e-01 3.325520000000000143e-01 2.386800000000000033e-02 -3.927900000000000141e-02 -1.927669999999999939e-01 4.327500000000000097e-02 3.992199999999999915e-02 2.153680000000000039e-01 1.583700000000000038e-02 -1.046369999999999939e-01 -3.551529999999999965e-01 -8.298099999999999921e-02
-9.876000000000000056e-02 1.502989999999999882e-01 4.171199999999999908e-02 4.071899999999999825e-02 -2.114719999999999933e-01 -3.291199999999999681e-02 -6.495599999999999985e-02 2.027090000000000003e-01 -2.458799999999999875e-02 1.229969999999999952e-01 -1.415349999999999941e-01 1.578799999999999995e-02
