-5.310706469000000425e+02
-5.311583802899999682e+02
-5.311680304499999465e+02
-5.311696226799999749e+02
-5.311777238700000225e+02
-5.381232905499999788e+02
-5.381232902100000501e+02
-5.380885560000000396e+02
-5.380885559299999841e+02
-5.380857399100000293e+02
-5.380857393600000478e+02
