-5.688000000000000347e-03 -3.043999999999999831e-03 0.000000000000000000e+00 -9.668999999999999817e-02 1.769370000000000109e-01 0.000000000000000000e+00 -5.686000000000000082e-03 -3.044999999999999964e-03 0.000000000000000000e+00 -9.668999999999999817e-02 1.769380000000000119e-01 0.000000000000000000e+00 -5.084600000000000231e-02 2.866300000000000098e-02 0.000000000000000000e+00 6.200000000000000270e-05 7.709999999999999840e-04 0.000000000000000000e+00 -5.084400000000000031e-02 2.866399999999999851e-02 0.000000000000000000e+00 6.200000000000000270e-05 7.709999999999999840e-04 0.000000000000000000e+00 -8.589999999999999546e-04 -5.886999999999999872e-02 0.000000000000000000e+00 1.050890000000000019e-01 -1.727349999999999997e-01 9.999999999999999547e-07 -8.610000000000000032e-04 -5.886899999999999772e-02 0.000000000000000000e+00 1.050900000000000029e-01 -1.727349999999999997e-01 9.999999999999999547e-07 5.904999999999999659e-03 -2.648999999999999879e-03 0.000000000000000000e+00 -3.770000000000000022e-04 -4.879999999999999898e-04 0.000000000000000000e+00 5.904999999999999659e-03 -2.648000000000000180e-03 0.000000000000000000e+00 -3.750000000000000078e-04 -4.889999999999999599e-04 0.000000000000000000e+00 4.910000000000000085e-04 6.836000000000000063e-03 0.000000000000000000e+00 -2.015929999999999944e-01 -3.853000000000000088e-03 0.000000000000000000e+00 4.910000000000000085e-04 6.834999999999999930e-03 0.000000000000000000e+00 -2.015939999999999954e-01 -3.853000000000000088e-03 0.000000000000000000e+00 -2.223160000000000136e-01 -1.291150000000000075e-01 0.000000000000000000e+00 -1.046939999999999954e-01 -1.726620000000000099e-01 -9.999999999999999547e-07 -2.223150000000000126e-01 -1.291150000000000075e-01 0.000000000000000000e+00 -1.046949999999999964e-01 -1.726610000000000089e-01 -9.999999999999999547e-07 -1.479999999999999925e-04 2.582180000000000031e-01 0.000000000000000000e+00 9.695800000000000252e-02 1.763019999999999865e-01 9.999999999999999547e-07 -1.489999999999999897e-04 2.582169999999999743e-01 0.000000000000000000e+00 9.695600000000000052e-02 1.763029999999999875e-01 9.999999999999999547e-07 5.039699999999999736e-02 2.947500000000000120e-02 0.000000000000000000e+00 2.013010000000000077e-01 -3.465000000000000198e-03 -9.999999999999999547e-07 5.039600000000000329e-02 2.947400000000000020e-02 0.000000000000000000e+00 2.013030000000000097e-01 -3.464000000000000065e-03 -9.999999999999999547e-07 2.233819999999999972e-01 -1.297870000000000135e-01 0.000000000000000000e+00 2.233819999999999972e-01 -1.297860000000000125e-01 0.000000000000000000e+00 -2.197000000000000168e-03 -9.290000000000000297e-04 0.000000000000000000e+00 -2.197000000000000168e-03 -9.280000000000000054e-04 -9.999999999999999547e-07 7.197199999999999431e-02 -4.103199999999999903e-02 0.000000000000000000e+00 7.197299999999999531e-02 -4.103300000000000003e-02 -9.999999999999999547e-07 1.730000000000000038e-04 8.232799999999999840e-02 0.000000000000000000e+00 1.740000000000000010e-04 8.232899999999999940e-02 0.000000000000000000e+00 1.605000000000000090e-03 5.550000000000000462e-04 9.999999999999999547e-07 1.605000000000000090e-03 5.550000000000000462e-04 -9.999999999999999547e-07 9.990000000000001049e-04 1.600000000000000077e-03 -9.999999999999999547e-07 9.979999999999999722e-04 1.600999999999999993e-03 -9.999999999999999547e-07 -3.460507999999999917e+00 -1.998496999999999968e+00 9.999999999999999547e-07 -3.460507999999999917e+00 -1.998496000000000050e+00 0.000000000000000000e+00 5.590000000000000351e-04 3.996691000000000216e+00 9.999999999999999547e-07 5.599999999999999509e-04 3.996691999999999911e+00 -9.999999999999999547e-07 -7.301399999999999557e-02 -4.174699999999999939e-02 9.999999999999999547e-07 -7.301499999999999657e-02 -4.174800000000000039e-02 0.000000000000000000e+00 3.461205000000000087e+00 -1.998164000000000051e+00 9.999999999999999547e-07 3.461202999999999808e+00 -1.998162999999999911e+00 0.000000000000000000e+00 -2.752900000000000139e-02 -6.742199999999999582e-02 0.000000000000000000e+00 -2.752800000000000039e-02 -6.742099999999999482e-02 -9.999999999999999547e-07 6.179999999999999513e-04 1.087999999999999991e-03 0.000000000000000000e+00 6.179999999999999513e-04 1.087999999999999991e-03 0.000000000000000000e+00 -7.184000000000000108e-02 9.367000000000000326e-03 0.000000000000000000e+00 -7.184000000000000108e-02 9.369000000000000591e-03 0.000000000000000000e+00 7.510000000000000399e-04 9.200000000000000007e-05 0.000000000000000000e+00 7.510000000000000399e-04 9.200000000000000007e-05 9.999999999999999547e-07 4.332899999999999946e-02 5.822499999999999898e-02 -9.999999999999999547e-07 4.332799999999999846e-02 5.822399999999999798e-02 0.000000000000000000e+00 7.153700000000000336e-02 8.403000000000000747e-03 9.999999999999999547e-07 7.153700000000000336e-02 8.403000000000000747e-03 0.000000000000000000e+00 2.673400000000000082e-02 -6.658600000000000629e-02 0.000000000000000000e+00 2.673400000000000082e-02 -6.658600000000000629e-02 0.000000000000000000e+00 -4.410499999999999837e-02 5.703300000000000036e-02 -9.999999999999999547e-07 -4.410499999999999837e-02 5.703300000000000036e-02 0.000000000000000000e+00 4.070000000000000267e-04 -4.100000000000000047e-05 -1.999999999999999909e-06 4.079999999999999968e-04 -4.199999999999999768e-05 9.999999999999999547e-07 -1.074000000000000085e-03 -1.497999999999999983e-03 3.999999999999999819e-06 -1.066000000000000107e-03 -1.505999999999999960e-03 3.000000000000000076e-06
-2.532200000000000076e-02 1.162999999999999971e-02 5.032199999999999868e-02 -9.933000000000000856e-03 -4.199999999999999740e-03 0.000000000000000000e+00 -2.532099999999999976e-02 1.163100000000000071e-02 -5.032099999999999768e-02 -7.036000000000000587e-02 1.840070000000000039e-01 0.000000000000000000e+00 -2.184699999999999837e-02 -1.302099999999999959e-02 1.090430000000000010e-01 -8.378000000000000030e-03 -6.069999999999999875e-03 0.000000000000000000e+00 -2.184699999999999837e-02 -1.302099999999999959e-02 -1.090420000000000000e-01 1.243780000000000024e-01 -1.525380000000000069e-01 9.999999999999999547e-07 -3.279999999999999930e-03 -2.779399999999999926e-02 5.032899999999999874e-02 -1.964199999999999974e-02 -1.147899999999999962e-02 0.000000000000000000e+00 -3.278999999999999797e-03 -2.779399999999999926e-02 -5.032799999999999774e-02 4.892999999999999780e-03 2.677000000000000126e-03 9.999999999999999547e-07 -3.520999999999999824e-03 -1.955999999999999839e-03 -1.125899999999999991e-02 -3.533000000000000116e-03 1.091600000000000036e-02 0.000000000000000000e+00 -3.520999999999999824e-03 -1.955999999999999839e-03 1.125999999999999918e-02 -2.073369999999999935e-01 2.377999999999999906e-03 0.000000000000000000e+00 -1.328179999999999916e-01 -7.044200000000000461e-02 -1.697960000000000025e-01 7.153999999999999769e-03 4.725000000000000033e-03 0.000000000000000000e+00 -1.328199999999999936e-01 -7.044499999999999373e-02 1.697970000000000035e-01 -2.987000000000000210e-01 -1.718469999999999998e-01 0.000000000000000000e+00 -1.269639999999999935e-01 -7.983099999999999918e-02 -1.697869999999999935e-01 8.590999999999999678e-03 -8.460000000000000506e-03 0.000000000000000000e+00 -1.269629999999999925e-01 -7.982899999999999718e-02 1.697879999999999945e-01 -1.006670000000000065e-01 -1.807090000000000085e-01 -9.999999999999999547e-07 2.979199999999999904e-02 1.598030000000000006e-01 -1.364869999999999972e-01 1.369599999999999984e-02 6.929000000000000263e-03 0.000000000000000000e+00 2.979199999999999904e-02 1.598019999999999996e-01 1.364869999999999972e-01 2.678490000000000038e-01 1.536980000000000013e-01 0.000000000000000000e+00 1.531520000000000103e-01 -5.370699999999999780e-02 -1.364269999999999927e-01 2.961000000000000090e-03 1.349799999999999958e-02 0.000000000000000000e+00 1.531550000000000133e-01 -5.371000000000000080e-02 1.364269999999999927e-01 1.337790000000000090e-01 7.675099999999999978e-02 -3.498660000000000103e-01 1.204099999999999962e-02 -3.543000000000000142e-03 0.000000000000000000e+00 1.337770000000000070e-01 7.675400000000000278e-02 3.498660000000000103e-01 2.499099999999999933e-02 -5.743999999999999974e-03 9.999999999999999547e-07 4.515700000000000269e-02 -3.513999999999999763e-02 -9.999999999999999547e-07 1.756100000000000022e-02 1.103400000000000040e-02 0.000000000000000000e+00 4.148799999999999710e-02 2.483799999999999897e-02 0.000000000000000000e+00 8.607999999999999333e-03 2.428400000000000003e-02 9.999999999999999547e-07 -6.765000000000000180e-03 5.645000000000000018e-02 0.000000000000000000e+00 -2.615000000000000137e-03 -7.590000000000000175e-04 0.000000000000000000e+00 1.599599999999999980e-02 1.000400000000000074e-02 0.000000000000000000e+00 -4.091999999999999804e-02 -3.339999999999999913e-02 9.999999999999999547e-07 -3.490298000000000123e+00 -2.006441999999999837e+00 -1.999999999999999909e-06 -5.005699999999999733e-02 -1.995699999999999905e-02 0.000000000000000000e+00 -3.483662999999999954e+00 -2.020461000000000062e+00 9.999999999999999547e-07 -2.083700000000000135e-02 4.314199999999999979e-02 0.000000000000000000e+00 -1.365199999999999921e-02 3.899786999999999892e+00 1.999999999999999909e-06 2.621700000000000072e-02 -4.031200000000000061e-02 0.000000000000000000e+00 3.369536000000000087e+00 -1.962217000000000100e+00 0.000000000000000000e+00 4.429899999999999810e-02 2.596100000000000144e-02 1.999999999999999909e-06 3.521812999999999860e+00 2.032764999999999933e+00 -1.999999999999999909e-06 -1.720700000000000007e-02 -3.632799999999999918e-02 -2.986300000000000066e-02 -1.720800000000000107e-02 -3.632799999999999918e-02 2.986300000000000066e-02 -3.851700000000000262e-02 3.540999999999999877e-03 -2.987899999999999931e-02 -3.851700000000000262e-02 3.540000000000000178e-03 2.988100000000000131e-02 -4.422600000000000142e-02 -2.481200000000000072e-02 7.981999999999999512e-03 -4.422600000000000142e-02 -2.481099999999999972e-02 -7.981999999999999512e-03 2.592500000000000013e-02 2.545000000000000040e-02 8.583999999999999617e-03 2.592500000000000013e-02 2.545100000000000140e-02 -8.583000000000000351e-03 5.480199999999999655e-02 3.280899999999999789e-02 9.681999999999999634e-03 5.480100000000000249e-02 3.280899999999999789e-02 -9.679999999999999369e-03 3.488000000000000128e-02 8.510000000000000203e-03 8.566999999999999962e-03 3.488000000000000128e-02 8.510000000000000203e-03 -8.566000000000000697e-03 -6.773999999999999640e-03 -3.691999999999999969e-03 2.258500000000000091e-02 -6.773999999999999640e-03 -3.690999999999999837e-03 -2.258500000000000091e-02 -1.021599999999999939e-02 2.873699999999999866e-02 -1.713221000000000105e+00 -1.021599999999999939e-02 2.873600000000000113e-02 1.713221000000000105e+00 2.053999999999999923e-02 -2.278700000000000170e-02 -1.713167000000000106e+00 2.053699999999999970e-02 -2.278499999999999970e-02 1.713168999999999942e+00 1.804340000000000110e-01 -5.099200000000000260e-02 -1.900000000000000105e-05 4.534200000000000036e-02 1.814540000000000042e-01 9.999999999999999547e-07
-2.772900000000000018e-02 1.343800000000000029e-02 6.047399999999999998e-02 -8.862100000000000533e-02 1.822330000000000061e-01 0.000000000000000000e+00 -2.773000000000000118e-02 1.343800000000000029e-02 -6.047399999999999998e-02 -1.024100000000000010e-02 -4.245999999999999774e-03 0.000000000000000000e+00 -2.550200000000000036e-02 -1.513199999999999962e-02 9.999999999999999547e-07 -8.569999999999999493e-03 -6.304999999999999841e-03 0.000000000000000000e+00 -2.550099999999999936e-02 -1.513199999999999962e-02 -9.999999999999999547e-07 1.137080000000000035e-01 -1.674779999999999880e-01 9.999999999999999547e-07 -2.919000000000000154e-03 -3.078200000000000033e-02 -6.048499999999999710e-02 1.014219999999999983e-01 -1.730579999999999896e-01 9.999999999999999547e-07 -2.919999999999999853e-03 -3.078200000000000033e-02 6.048400000000000304e-02 -9.903900000000000203e-02 1.741510000000000002e-01 0.000000000000000000e+00 2.262000000000000122e-03 1.384000000000000031e-03 -7.999999999999999638e-06 -2.595000000000000084e-03 1.077299999999999959e-02 0.000000000000000000e+00 2.262999999999999821e-03 1.384999999999999946e-03 7.999999999999999638e-06 -2.029960000000000098e-01 -1.456499999999999982e-02 0.000000000000000000e+00 -1.278150000000000119e-01 -7.127699999999999314e-02 -1.704289999999999972e-01 -1.935669999999999891e-01 -2.102800000000000155e-02 0.000000000000000000e+00 -1.278160000000000129e-01 -7.127600000000000602e-02 1.704289999999999972e-01 -1.155199999999999977e-01 -1.562209999999999988e-01 -9.999999999999999547e-07 -1.251829999999999887e-01 -7.508099999999999496e-02 1.704299999999999982e-01 -1.131749999999999978e-01 -1.684660000000000046e-01 -9.999999999999999547e-07 -1.251819999999999877e-01 -7.508199999999999597e-02 -1.704299999999999982e-01 8.942999999999999561e-03 -7.586999999999999994e-03 0.000000000000000000e+00 2.546999999999999958e-02 1.632399999999999962e-01 2.316910000000000081e-01 9.080100000000000671e-02 1.926279999999999937e-01 9.999999999999999547e-07 2.546899999999999858e-02 1.632399999999999962e-01 -2.316910000000000081e-01 2.130990000000000106e-01 -1.909599999999999839e-02 -9.999999999999999547e-07 1.539679999999999938e-01 -5.917000000000000037e-02 -2.316300000000000026e-01 2.018399999999999916e-01 -1.210299999999999918e-02 -9.999999999999999547e-07 1.539669999999999928e-01 -5.917000000000000037e-02 2.316290000000000016e-01 1.266990000000000061e-01 7.266400000000000636e-02 3.600000000000000091e-05 1.266990000000000061e-01 7.266300000000000536e-02 -3.699999999999999811e-05 8.928800000000000625e-02 1.814880000000000104e-01 9.999999999999999547e-07 9.556999999999999523e-03 -1.685599999999999946e-02 0.000000000000000000e+00 5.960499999999999826e-02 -2.637799999999999867e-02 9.999999999999999547e-07 5.218600000000000322e-02 -7.533999999999999898e-03 -9.999999999999999547e-07 1.879899999999999974e-02 5.029800000000000243e-02 0.000000000000000000e+00 8.049000000000000599e-03 6.458200000000000052e-02 0.000000000000000000e+00 -8.736000000000000709e-03 1.647300000000000153e-02 9.999999999999999547e-07 1.031699999999999978e-02 -1.325600000000000042e-02 -9.999999999999999547e-07 -6.973000000000000032e-03 1.670599999999999863e-02 0.000000000000000000e+00 -4.301900000000000168e-02 -1.422000000000000000e-02 0.000000000000000000e+00 -3.441826999999999970e+00 -1.995883000000000074e+00 -9.999999999999999547e-07 -3.450273999999999841e+00 -1.983781000000000017e+00 0.000000000000000000e+00 -3.451100000000000001e-02 -3.135799999999999699e-02 9.999999999999999547e-07 -1.787400000000000100e-02 3.965659000000000045e+00 9.999999999999999547e-07 -5.191699999999999787e-02 1.946600000000000066e-02 0.000000000000000000e+00 -9.818999999999999603e-03 -5.539899999999999686e-02 -9.999999999999999547e-07 3.424474000000000018e+00 -1.998796999999999935e+00 9.999999999999999547e-07 3.446794000000000135e+00 -1.931580000000000075e+00 -9.999999999999999547e-07 4.995700000000000141e-02 3.950267000000000195e+00 9.999999999999999547e-07 -1.216399999999999947e-02 -3.509099999999999719e-02 -4.383299999999999697e-02 -1.216399999999999947e-02 -3.508900000000000213e-02 4.383100000000000190e-02 -3.492300000000000265e-02 7.290999999999999738e-03 4.381899999999999684e-02 -3.492200000000000165e-02 7.290999999999999738e-03 -4.381899999999999684e-02 -4.758199999999999930e-02 -2.674999999999999947e-02 6.000000000000000152e-06 -4.758199999999999930e-02 -2.675100000000000047e-02 -6.999999999999999895e-06 2.389799999999999910e-02 2.736099999999999990e-02 -9.380000000000000317e-04 2.389799999999999910e-02 2.736099999999999990e-02 9.409999999999999962e-04 5.706300000000000261e-02 3.411499999999999949e-02 3.000000000000000076e-06 5.706300000000000261e-02 3.411399999999999849e-02 -3.000000000000000076e-06 3.552000000000000296e-02 5.801999999999999866e-03 9.600000000000000243e-04 3.551900000000000196e-02 5.800999999999999733e-03 -9.600000000000000243e-04 -1.199899999999999925e-02 -6.708000000000000421e-03 -1.000000000000000082e-05 -1.199700000000000072e-02 -6.707000000000000288e-03 9.000000000000000228e-06 -2.570800000000000168e-02 3.170699999999999907e-02 -1.726533000000000095e+00 -2.570400000000000115e-02 3.170800000000000007e-02 1.726534000000000013e+00 1.536799999999999972e-02 -3.768200000000000022e-02 1.726474000000000064e+00 1.536900000000000072e-02 -3.768400000000000222e-02 -1.726474999999999982e+00 -7.799999999999999859e-05 4.354000000000000231e-03 1.200000000000000030e-05 3.057999999999999954e-03 -2.540999999999999856e-03 -1.000000000000000082e-05
-2.379000000000000038e-03 -1.126999999999999964e-03 -5.989000000000000400e-03 -1.292300000000000046e-02 -3.752000000000000127e-03 6.336999999999999751e-03 -2.125000000000000153e-03 -9.799999999999999684e-04 5.982999999999999603e-03 -9.096100000000000019e-02 1.814489999999999992e-01 -6.356999999999999804e-03 -3.493000000000000271e-02 2.135799999999999851e-02 5.422099999999999836e-02 1.270959999999999868e-01 7.410400000000000320e-02 1.788339999999999930e-01 8.956300000000000372e-02 1.812199999999999922e-01 -5.403399999999999870e-02 1.294960000000000000e-01 7.549599999999999367e-02 -1.795009999999999939e-01 7.749999999999999728e-04 -4.143999999999999767e-02 5.422799999999999843e-02 -9.480999999999999844e-03 -9.799999999999999684e-03 6.337999999999999884e-03 2.014519999999999922e-01 -1.354799999999999928e-02 -5.404199999999999976e-02 1.118549999999999961e-01 -1.700309999999999877e-01 -6.356999999999999804e-03 1.374900000000000080e-02 3.827000000000000107e-03 -6.335000000000000353e-03 1.587000000000000086e-03 6.570000000000000319e-04 5.984999999999999869e-03 9.180699999999999972e-02 -1.813639999999999974e-01 6.355999999999999671e-03 1.342000000000000094e-03 5.090000000000000123e-04 -5.978999999999999940e-03 1.001200000000000007e-02 1.038999999999999993e-02 -6.340000000000000149e-03 -1.268000000000000030e-03 4.179299999999999682e-02 -5.422600000000000336e-02 -1.113040000000000002e-01 1.706219999999999959e-01 6.359000000000000069e-03 -2.019440000000000124e-01 1.396599999999999925e-02 5.404099999999999876e-02 -1.256960000000000022e-01 -7.334200000000000441e-02 -1.787559999999999982e-01 3.499700000000000033e-02 -2.198599999999999860e-02 -5.422300000000000036e-02 -1.280999999999999917e-01 -7.472399999999999876e-02 1.794229999999999992e-01 -8.943399999999999961e-02 -1.818780000000000119e-01 5.403600000000000070e-02 -1.107200000000000024e-02 1.513519999999999865e-01 -1.766719999999999957e-01 1.097899999999999918e-02 -1.523539999999999894e-01 1.766340000000000132e-01 -8.919399999999999551e-02 -3.323899999999999771e-02 1.763579999999999870e-01 8.909000000000000252e-02 3.223899999999999683e-02 -1.763210000000000055e-01 2.474200000000000010e-02 1.464999999999999983e-02 5.128599999999999826e-02 -1.263269999999999949e-01 8.632800000000000196e-02 1.765899999999999970e-01 7.260500000000000287e-02 6.174999999999999933e-02 -1.762789999999999913e-01 1.253650000000000042e-01 -8.581600000000000339e-02 -1.766079999999999872e-01 -2.540399999999999950e-02 -1.496899999999999967e-02 -5.129000000000000226e-02 -7.355899999999999939e-02 -6.122799999999999770e-02 1.762960000000000083e-01 6.847999999999999921e-03 4.283000000000000348e-03 -6.746000000000000260e-03 -1.053899999999999976e-02 -5.753000000000000301e-03 6.599999999999999964e-03 -1.570399999999999921e-02 -1.652299999999999949e-02 -6.396999999999999909e-03 1.686299999999999952e-02 -3.541300000000000003e-02 6.368999999999999662e-03 -2.243300000000000155e-02 -5.852000000000000431e-03 -6.399000000000000174e-03 -2.251099999999999976e-02 3.179900000000000088e-02 6.370999999999999927e-03 4.200999999999999873e-03 3.869100000000000317e-02 -5.448999999999999851e-03 2.230700000000000044e-02 2.875199999999999978e-02 5.442999999999999922e-03 3.532899999999999929e-02 -1.524200000000000034e-02 -5.434999999999999727e-03 3.577500000000000124e-02 5.418000000000000073e-03 5.428999999999999798e-03 -4.523499999999999743e-02 -2.689300000000000024e-02 3.713400000000000034e-02 -3.436268999999999796e+00 -1.984496999999999955e+00 -3.660399999999999765e-02 -1.013000000000000012e-02 8.552200000000000080e-02 -5.344999999999999925e-03 -1.052600000000000063e-02 4.015354999999999563e+00 8.453000000000000444e-03 -2.049799999999999886e-02 -1.144900000000000084e-02 1.727330000000000032e+00 -5.304099999999999787e-02 -3.023899999999999852e-02 -1.717141999999999946e+00 6.872100000000000430e-02 -5.203900000000000192e-02 -5.333000000000000067e-03 3.471837999999999980e+00 -2.017087000000000074e+00 8.441000000000000586e-03 -3.298999999999999849e-03 -3.883500000000000146e-02 5.458000000000000178e-03 -2.140900000000000095e-02 -2.889200000000000101e-02 -5.453000000000000382e-03 4.610899999999999721e-02 2.735999999999999890e-02 -3.713400000000000034e-02 3.438069000000000042e+00 1.985627999999999949e+00 3.660299999999999665e-02 -3.497399999999999815e-02 1.604600000000000123e-02 5.439000000000000258e-03 -3.541600000000000303e-02 -4.609000000000000249e-03 -5.433000000000000329e-03 -7.313000000000000056e-03 -4.573999999999999941e-03 6.747999999999999658e-03 1.006600000000000029e-02 5.460999999999999709e-03 -6.601000000000000097e-03 2.251600000000000129e-02 5.812999999999999591e-03 6.383999999999999918e-03 2.260500000000000009e-02 -3.183199999999999918e-02 -6.357999999999999936e-03 1.573000000000000093e-02 1.658400000000000152e-02 6.379000000000000122e-03 -1.683199999999999974e-02 3.548099999999999865e-02 -6.352000000000000007e-03 9.657000000000000653e-03 -8.629799999999999971e-02 5.355999999999999650e-03 1.013999999999999971e-02 -4.015994000000000064e+00 -8.463999999999999302e-03 -6.969400000000000595e-02 5.211400000000000060e-02 5.338999999999999996e-03 -3.472560000000000091e+00 2.017119000000000106e+00 -8.448000000000000648e-03 2.014799999999999924e-02 1.131599999999999967e-02 -1.727357000000000031e+00 5.269900000000000279e-02 3.010300000000000128e-02 1.717170000000000085e+00 3.195699999999999930e-02 1.932700000000000043e-02 -5.715400000000000341e-02 -3.360699999999999799e-02 -2.028200000000000142e-02 5.716000000000000247e-02
-3.899999999999999929e-04 3.000000000000000076e-05 0.000000000000000000e+00 2.401299999999999962e-02 -1.405600000000000079e-02 -4.898099999999999676e-02 -3.869999999999999742e-04 3.100000000000000135e-05 0.000000000000000000e+00 2.401199999999999862e-02 -1.405499999999999979e-02 4.898099999999999676e-02 1.701000000000000038e-03 1.116499999999999958e-02 0.000000000000000000e+00 1.302879999999999872e-01 7.594499999999999862e-02 1.850950000000000095e-01 2.052219999999999878e-01 -1.543699999999999933e-02 9.999999999999999547e-07 1.302869999999999862e-01 7.594599999999999962e-02 -1.850940000000000085e-01 1.026900000000000035e-02 -4.623000000000000373e-03 0.000000000000000000e+00 5.399999999999999798e-05 2.733700000000000019e-02 -4.898399999999999976e-02 8.895400000000000529e-02 1.849500000000000033e-01 -9.999999999999999547e-07 5.500000000000000196e-05 2.733400000000000066e-02 4.898399999999999976e-02 9.834000000000000727e-03 -7.093000000000000346e-03 0.000000000000000000e+00 -2.414600000000000080e-02 -1.420199999999999935e-02 -4.898399999999999976e-02 -1.149889999999999940e-01 -1.700260000000000105e-01 9.999999999999999547e-07 -2.414600000000000080e-02 -1.419899999999999982e-02 4.898399999999999976e-02 -1.410000000000000012e-03 1.245899999999999959e-02 0.000000000000000000e+00 4.029999999999999837e-04 -1.177340000000000053e-01 1.221809999999999979e-01 -2.048879999999999868e-01 -1.409499999999999989e-02 -9.999999999999999547e-07 4.040000000000000080e-04 -1.177340000000000053e-01 -1.221809999999999979e-01 1.355000000000000085e-03 9.000000000000000228e-06 0.000000000000000000e+00 -1.023290000000000033e-01 5.921799999999999981e-02 1.222270000000000023e-01 -1.023280000000000023e-01 5.921599999999999780e-02 -1.222270000000000023e-01 -9.317999999999999894e-03 -7.540999999999999960e-03 0.000000000000000000e+00 6.999999999999999387e-05 -1.513190000000000091e-01 1.850900000000000045e-01 1.154970000000000024e-01 -1.704880000000000007e-01 0.000000000000000000e+00 6.999999999999999387e-05 -1.513170000000000071e-01 -1.850890000000000035e-01 -1.949999999999999965e-04 2.469999999999999865e-04 0.000000000000000000e+00 -1.308870000000000033e-01 7.637299999999999645e-02 1.850350000000000050e-01 -1.308880000000000043e-01 7.637199999999999545e-02 -1.850350000000000050e-01 -1.137299999999999943e-02 -4.852999999999999675e-03 0.000000000000000000e+00 1.022359999999999935e-01 5.870000000000000218e-02 1.221840000000000009e-01 -9.010200000000000153e-02 1.846550000000000136e-01 1.999999999999999909e-06 1.022350000000000064e-01 5.869900000000000118e-02 -1.221840000000000009e-01 -1.196999999999999930e-03 -3.680000000000000003e-04 3.184499999999999831e-02 -1.196999999999999930e-03 -3.680000000000000003e-04 -3.184399999999999731e-02 -2.425100000000000172e-02 2.873799999999999966e-02 -1.168699999999999947e-02 -2.425000000000000072e-02 2.873900000000000066e-02 1.168699999999999947e-02 1.249499999999999916e-02 -3.587800000000000017e-02 -1.169199999999999927e-02 1.249399999999999990e-02 -3.587900000000000117e-02 1.169199999999999927e-02 3.691200000000000037e-02 7.830999999999999420e-03 -1.169300000000000027e-02 3.691300000000000137e-02 7.830999999999999420e-03 1.169399999999999953e-02 2.496699999999999961e-02 2.851100000000000162e-02 -1.166799999999999955e-02 2.496699999999999961e-02 2.851100000000000162e-02 1.166900000000000055e-02 2.410000000000000033e-04 -6.009999999999999717e-04 1.757528999999999897e+00 2.410000000000000033e-04 -6.019999999999999961e-04 -1.757528999999999897e+00 -3.564099999999999907e-02 6.361999999999999600e-03 -1.168899999999999974e-02 -3.564099999999999907e-02 6.361999999999999600e-03 1.168899999999999974e-02 -6.769999999999999759e-04 -6.999999999999999895e-06 1.716005000000000003e+00 -6.780000000000000002e-04 -6.999999999999999895e-06 -1.716005000000000003e+00 -1.257400000000000011e-02 -3.455199999999999938e-02 -1.166900000000000055e-02 -1.257400000000000011e-02 -3.455199999999999938e-02 1.166900000000000055e-02 -1.176100000000000062e-02 5.730999999999999983e-03 0.000000000000000000e+00 -6.299000000000000432e-02 3.530799999999999911e-02 0.000000000000000000e+00 3.748200000000000143e-02 2.238400000000000112e-02 9.999999999999999547e-07 3.450992999999999977e+00 1.993095999999999979e+00 -9.999999999999999547e-07 -6.139999999999999625e-04 -1.357799999999999979e-02 0.000000000000000000e+00 -6.229999999999999644e-04 -7.272699999999999998e-02 0.000000000000000000e+00 1.282699999999999986e-02 7.050999999999999976e-03 0.000000000000000000e+00 6.404899999999999483e-02 3.663700000000000290e-02 0.000000000000000000e+00 -6.899999999999999667e-05 -7.401199999999999446e-02 9.999999999999999547e-07 1.100000000000000039e-04 -4.043674000000000213e+00 -9.999999999999999547e-07 -6.470599999999999963e-02 3.693599999999999661e-02 0.000000000000000000e+00 -3.503219000000000083e+00 2.022120000000000140e+00 0.000000000000000000e+00 -1.054000000000000032e-03 -4.293899999999999800e-02 0.000000000000000000e+00 -9.349999999999999587e-04 -3.984208999999999889e+00 0.000000000000000000e+00 -3.748900000000000149e-02 2.117399999999999838e-02 0.000000000000000000e+00 -3.450539000000000023e+00 1.991641999999999912e+00 0.000000000000000000e+00 6.538900000000000268e-02 3.740999999999999881e-02 0.000000000000000000e+00 3.503131000000000217e+00 2.022063000000000166e+00 0.000000000000000000e+00 8.350000000000000217e-04 -9.399999999999999719e-04 -5.000000000000000409e-06 -5.519999999999999733e-04 5.419999999999999471e-04 -5.000000000000000409e-06