4.643889999999999851e+00 2.681150000000000144e+00 0.000000000000000000e+00 6.191860000000000142e+00 3.574870000000000214e+00 2.527820000000000178e+00 7.739869999999999806e+00 4.468619999999999592e+00 5.055710000000000370e+00 6.191900000000000404e+00 5.362390000000000434e+00 0.000000000000000000e+00 7.739869999999999806e+00 6.256099999999999994e+00 2.527820000000000178e+00 4.643889999999999851e+00 8.937199999999999589e-01 2.527820000000000178e+00 9.287929999999999353e+00 5.362390000000000434e+00 0.000000000000000000e+00 1.238390000000000057e+01 7.149849999999999817e+00 5.055710000000000370e+00 6.191950000000000287e+00 0.000000000000000000e+00 0.000000000000000000e+00 1.547960000000000003e+00 8.937199999999999589e-01 2.527820000000000178e+00 1.547919999999999963e+00 8.936899999999999844e-01 6.319299999999999917e-01 3.095930000000000071e+00 1.787439999999999918e+00 3.159829999999999917e+00 4.643889999999999851e+00 2.681150000000000144e+00 5.687640000000000029e+00 3.095930000000000071e+00 3.574920000000000098e+00 6.319299999999999917e-01 4.643939999999999735e+00 4.468670000000000364e+00 3.159829999999999917e+00 6.191900000000000404e+00 5.362390000000000434e+00 5.687640000000000029e+00 4.643889999999999851e+00 6.256079999999999863e+00 6.319299999999999917e-01 6.191900000000000404e+00 7.149820000000000064e+00 3.159829999999999917e+00 7.739869999999999806e+00 8.043540000000000134e+00 5.687640000000000029e+00 4.643939999999999735e+00 8.936899999999999844e-01 6.319299999999999917e-01 6.191950000000000287e+00 1.787439999999999918e+00 3.159829999999999917e+00 7.739919999999999689e+00 2.681150000000000144e+00 5.687640000000000029e+00 6.191950000000000287e+00 3.574920000000000098e+00 6.319299999999999917e-01 7.739959999999999951e+00 4.468670000000000364e+00 3.159829999999999917e+00 9.287929999999999353e+00 5.362390000000000434e+00 5.687640000000000029e+00 7.739919999999999689e+00 6.256079999999999863e+00 6.319299999999999917e-01 9.287929999999999353e+00 7.149820000000000064e+00 3.159829999999999917e+00 1.083588999999999913e+01 8.043540000000000134e+00 5.687640000000000029e+00 7.739869999999999806e+00 8.936899999999999844e-01 6.319299999999999917e-01 9.287879999999999470e+00 1.787439999999999918e+00 3.159829999999999917e+00 1.083583999999999925e+01 2.681150000000000144e+00 5.687640000000000029e+00 9.287879999999999470e+00 3.574920000000000098e+00 6.319299999999999917e-01 1.083588999999999913e+01 4.468670000000000364e+00 3.159829999999999917e+00 1.238386000000000031e+01 5.362390000000000434e+00 5.687640000000000029e+00 1.083583999999999925e+01 6.256079999999999863e+00 6.319299999999999917e-01 1.238386000000000031e+01 7.149820000000000064e+00 3.159829999999999917e+00 1.393182000000000009e+01 8.043540000000000134e+00 5.687640000000000029e+00 9.287879999999999470e+00 7.149849999999999817e+00 5.055710000000000370e+00 3.095930000000000071e+00 0.000000000000000000e+00 0.000000000000000000e+00 6.191900000000000404e+00 1.787460000000000049e+00 5.055710000000000370e+00 7.739919999999999689e+00 2.681150000000000144e+00 0.000000000000000000e+00 9.287879999999999470e+00 3.574870000000000214e+00 2.527820000000000178e+00 1.083588999999999913e+01 4.468619999999999592e+00 5.055710000000000370e+00 1.083588999999999913e+01 6.256099999999999994e+00 2.527820000000000178e+00 7.739919999999999689e+00 8.937199999999999589e-01 2.527820000000000178e+00 9.287929999999999353e+00 1.787460000000000049e+00 5.055710000000000370e+00 1.547960000000000003e+00 2.681150000000000144e+00 0.000000000000000000e+00 3.095930000000000071e+00 3.574870000000000214e+00 2.527820000000000178e+00 4.643939999999999735e+00 4.468619999999999592e+00 5.055710000000000370e+00 3.095979999999999954e+00 5.362390000000000434e+00 0.000000000000000000e+00 4.643939999999999735e+00 6.256099999999999994e+00 2.527820000000000178e+00 6.191950000000000287e+00 7.149849999999999817e+00 5.055710000000000370e+00 0.000000000000000000e+00 0.000000000000000000e+00 0.000000000000000000e+00 3.095979999999999954e+00 1.787460000000000049e+00 5.055710000000000370e+00
4.643889999999999851e+00 2.681150000000000144e+00 0.000000000000000000e+00 6.191860000000000142e+00 3.574870000000000214e+00 2.527820000000000178e+00 7.739869999999999806e+00 4.468619999999999592e+00 5.055710000000000370e+00 6.191900000000000404e+00 5.362390000000000434e+00 0.000000000000000000e+00 7.739869999999999806e+00 6.256099999999999994e+00 2.527820000000000178e+00 4.643889999999999851e+00 8.937199999999999589e-01 2.527820000000000178e+00 9.287929999999999353e+00 5.362390000000000434e+00 0.000000000000000000e+00 7.739919999999999689e+00 8.937199999999999589e-01 2.527820000000000178e+00 6.191950000000000287e+00 7.149849999999999817e+00 5.055710000000000370e+00 1.547960000000000003e+00 8.937199999999999589e-01 2.527820000000000178e+00 1.547919999999999963e+00 8.936899999999999844e-01 6.319299999999999917e-01 3.095930000000000071e+00 1.787439999999999918e+00 3.159829999999999917e+00 4.643889999999999851e+00 2.681150000000000144e+00 5.687640000000000029e+00 3.095930000000000071e+00 3.574920000000000098e+00 6.319299999999999917e-01 4.643939999999999735e+00 4.468670000000000364e+00 3.159829999999999917e+00 6.191900000000000404e+00 5.362390000000000434e+00 5.687640000000000029e+00 4.643889999999999851e+00 6.256079999999999863e+00 6.319299999999999917e-01 6.191900000000000404e+00 7.149820000000000064e+00 3.159829999999999917e+00 7.739869999999999806e+00 8.043540000000000134e+00 5.687640000000000029e+00 4.643939999999999735e+00 8.936899999999999844e-01 6.319299999999999917e-01 6.191950000000000287e+00 1.787439999999999918e+00 3.159829999999999917e+00 7.739919999999999689e+00 2.681150000000000144e+00 5.687640000000000029e+00 6.191950000000000287e+00 3.574920000000000098e+00 6.319299999999999917e-01 7.739959999999999951e+00 4.468670000000000364e+00 3.159829999999999917e+00 9.287929999999999353e+00 5.362390000000000434e+00 5.687640000000000029e+00 7.739919999999999689e+00 6.256079999999999863e+00 6.319299999999999917e-01 9.287929999999999353e+00 7.149820000000000064e+00 3.159829999999999917e+00 1.083588999999999913e+01 8.043540000000000134e+00 5.687640000000000029e+00 7.739869999999999806e+00 8.936899999999999844e-01 6.319299999999999917e-01 9.287879999999999470e+00 1.787439999999999918e+00 3.159829999999999917e+00 1.083583999999999925e+01 2.681150000000000144e+00 5.687640000000000029e+00 9.287879999999999470e+00 3.574920000000000098e+00 6.319299999999999917e-01 1.083588999999999913e+01 4.468670000000000364e+00 3.159829999999999917e+00 1.238386000000000031e+01 5.362390000000000434e+00 5.687640000000000029e+00 1.083583999999999925e+01 6.256079999999999863e+00 6.319299999999999917e-01 1.238386000000000031e+01 7.149820000000000064e+00 3.159829999999999917e+00 1.393182000000000009e+01 8.043540000000000134e+00 5.687640000000000029e+00 9.287879999999999470e+00 7.149849999999999817e+00 5.055710000000000370e+00 3.095930000000000071e+00 0.000000000000000000e+00 0.000000000000000000e+00 6.191900000000000404e+00 1.787460000000000049e+00 5.055710000000000370e+00 7.739919999999999689e+00 2.681150000000000144e+00 0.000000000000000000e+00 9.287879999999999470e+00 3.574870000000000214e+00 2.527820000000000178e+00 1.083588999999999913e+01 4.468619999999999592e+00 5.055710000000000370e+00 1.083588999999999913e+01 6.256099999999999994e+00 2.527820000000000178e+00 1.238390000000000057e+01 7.149849999999999817e+00 5.055710000000000370e+00 6.191950000000000287e+00 0.000000000000000000e+00 0.000000000000000000e+00 9.287929999999999353e+00 1.787460000000000049e+00 5.055710000000000370e+00 1.547960000000000003e+00 2.681150000000000144e+00 0.000000000000000000e+00 3.095930000000000071e+00 3.574870000000000214e+00 2.527820000000000178e+00 4.643939999999999735e+00 4.468619999999999592e+00 5.055710000000000370e+00 3.095979999999999954e+00 5.362390000000000434e+00 0.000000000000000000e+00 4.643939999999999735e+00 6.256099999999999994e+00 2.527820000000000178e+00 0.000000000000000000e+00 0.000000000000000000e+00 0.000000000000000000e+00 3.095979999999999954e+00 1.787460000000000049e+00 5.055710000000000370e+00
4.643889999999999851e+00 2.681150000000000144e+00 0.000000000000000000e+00 6.191860000000000142e+00 3.574870000000000214e+00 2.527820000000000178e+00 7.739869999999999806e+00 4.468619999999999592e+00 5.055710000000000370e+00 6.191900000000000404e+00 5.362390000000000434e+00 0.000000000000000000e+00 7.739869999999999806e+00 6.256099999999999994e+00 2.527820000000000178e+00 7.739919999999999689e+00 2.681150000000000144e+00 0.000000000000000000e+00 6.191950000000000287e+00 0.000000000000000000e+00 0.000000000000000000e+00 9.287929999999999353e+00 1.787460000000000049e+00 5.055710000000000370e+00 1.547960000000000003e+00 2.681150000000000144e+00 0.000000000000000000e+00 6.191950000000000287e+00 7.149849999999999817e+00 5.055710000000000370e+00 1.547919999999999963e+00 8.936899999999999844e-01 6.319299999999999917e-01 3.095930000000000071e+00 1.787439999999999918e+00 3.159829999999999917e+00 4.643889999999999851e+00 2.681150000000000144e+00 5.687640000000000029e+00 3.095930000000000071e+00 3.574920000000000098e+00 6.319299999999999917e-01 4.643939999999999735e+00 4.468670000000000364e+00 3.159829999999999917e+00 6.191900000000000404e+00 5.362390000000000434e+00 5.687640000000000029e+00 4.643889999999999851e+00 6.256079999999999863e+00 6.319299999999999917e-01 6.191900000000000404e+00 7.149820000000000064e+00 3.159829999999999917e+00 7.739869999999999806e+00 8.043540000000000134e+00 5.687640000000000029e+00 4.643939999999999735e+00 8.936899999999999844e-01 6.319299999999999917e-01 6.191950000000000287e+00 1.787439999999999918e+00 3.159829999999999917e+00 7.739919999999999689e+00 2.681150000000000144e+00 5.687640000000000029e+00 6.191950000000000287e+00 3.574920000000000098e+00 6.319299999999999917e-01 7.739959999999999951e+00 4.468670000000000364e+00 3.159829999999999917e+00 9.287929999999999353e+00 5.362390000000000434e+00 5.687640000000000029e+00 7.739919999999999689e+00 6.256079999999999863e+00 6.319299999999999917e-01 9.287929999999999353e+00 7.149820000000000064e+00 3.159829999999999917e+00 1.083588999999999913e+01 8.043540000000000134e+00 5.687640000000000029e+00 7.739869999999999806e+00 8.936899999999999844e-01 6.319299999999999917e-01 9.287879999999999470e+00 1.787439999999999918e+00 3.159829999999999917e+00 1.083583999999999925e+01 2.681150000000000144e+00 5.687640000000000029e+00 9.287879999999999470e+00 3.574920000000000098e+00 6.319299999999999917e-01 1.083588999999999913e+01 4.468670000000000364e+00 3.159829999999999917e+00 1.238386000000000031e+01 5.362390000000000434e+00 5.687640000000000029e+00 1.083583999999999925e+01 6.256079999999999863e+00 6.319299999999999917e-01 1.238386000000000031e+01 7.149820000000000064e+00 3.159829999999999917e+00 1.393182000000000009e+01 8.043540000000000134e+00 5.687640000000000029e+00 9.287879999999999470e+00 7.149849999999999817e+00 5.055710000000000370e+00 3.095930000000000071e+00 0.000000000000000000e+00 0.000000000000000000e+00 4.643889999999999851e+00 8.937199999999999589e-01 2.527820000000000178e+00 6.191900000000000404e+00 1.787460000000000049e+00 5.055710000000000370e+00 9.287879999999999470e+00 3.574870000000000214e+00 2.527820000000000178e+00 1.083588999999999913e+01 4.468619999999999592e+00 5.055710000000000370e+00 9.287929999999999353e+00 5.362390000000000434e+00 0.000000000000000000e+00 1.083588999999999913e+01 6.256099999999999994e+00 2.527820000000000178e+00 1.238390000000000057e+01 7.149849999999999817e+00 5.055710000000000370e+00 7.739919999999999689e+00 8.937199999999999589e-01 2.527820000000000178e+00 3.095930000000000071e+00 3.574870000000000214e+00 2.527820000000000178e+00 4.643939999999999735e+00 4.468619999999999592e+00 5.055710000000000370e+00 3.095979999999999954e+00 5.362390000000000434e+00 0.000000000000000000e+00 4.643939999999999735e+00 6.256099999999999994e+00 2.527820000000000178e+00 0.000000000000000000e+00 0.000000000000000000e+00 0.000000000000000000e+00 1.547960000000000003e+00 8.937199999999999589e-01 2.527820000000000178e+00 3.095979999999999954e+00 1.787460000000000049e+00 5.055710000000000370e+00
4.643889999999999851e+00 2.681150000000000144e+00 0.000000000000000000e+00 6.191860000000000142e+00 3.574870000000000214e+00 2.527820000000000178e+00 7.739869999999999806e+00 4.468619999999999592e+00 5.055710000000000370e+00 6.191900000000000404e+00 5.362390000000000434e+00 0.000000000000000000e+00 3.095930000000000071e+00 0.000000000000000000e+00 0.000000000000000000e+00 6.191900000000000404e+00 1.787460000000000049e+00 5.055710000000000370e+00 9.287879999999999470e+00 3.574870000000000214e+00 2.527820000000000178e+00 9.287929999999999353e+00 5.362390000000000434e+00 0.000000000000000000e+00 1.083588999999999913e+01 6.256099999999999994e+00 2.527820000000000178e+00 9.287929999999999353e+00 1.787460000000000049e+00 5.055710000000000370e+00 1.547919999999999963e+00 8.936899999999999844e-01 6.319299999999999917e-01 3.095930000000000071e+00 1.787439999999999918e+00 3.159829999999999917e+00 4.643889999999999851e+00 2.681150000000000144e+00 5.687640000000000029e+00 3.095930000000000071e+00 3.574920000000000098e+00 6.319299999999999917e-01 4.643939999999999735e+00 4.468670000000000364e+00 3.159829999999999917e+00 6.191900000000000404e+00 5.362390000000000434e+00 5.687640000000000029e+00 4.643889999999999851e+00 6.256079999999999863e+00 6.319299999999999917e-01 6.191900000000000404e+00 7.149820000000000064e+00 3.159829999999999917e+00 7.739869999999999806e+00 8.043540000000000134e+00 5.687640000000000029e+00 4.643939999999999735e+00 8.936899999999999844e-01 6.319299999999999917e-01 6.191950000000000287e+00 1.787439999999999918e+00 3.159829999999999917e+00 7.739919999999999689e+00 2.681150000000000144e+00 5.687640000000000029e+00 6.191950000000000287e+00 3.574920000000000098e+00 6.319299999999999917e-01 7.739959999999999951e+00 4.468670000000000364e+00 3.159829999999999917e+00 9.287929999999999353e+00 5.362390000000000434e+00 5.687640000000000029e+00 7.739919999999999689e+00 6.256079999999999863e+00 6.319299999999999917e-01 9.287929999999999353e+00 7.149820000000000064e+00 3.159829999999999917e+00 1.083588999999999913e+01 8.043540000000000134e+00 5.687640000000000029e+00 7.739869999999999806e+00 8.936899999999999844e-01 6.319299999999999917e-01 9.287879999999999470e+00 1.787439999999999918e+00 3.159829999999999917e+00 1.083583999999999925e+01 2.681150000000000144e+00 5.687640000000000029e+00 9.287879999999999470e+00 3.574920000000000098e+00 6.319299999999999917e-01 1.083588999999999913e+01 4.468670000000000364e+00 3.159829999999999917e+00 1.238386000000000031e+01 5.362390000000000434e+00 5.687640000000000029e+00 1.083583999999999925e+01 6.256079999999999863e+00 6.319299999999999917e-01 1.238386000000000031e+01 7.149820000000000064e+00 3.159829999999999917e+00 1.393182000000000009e+01 8.043540000000000134e+00 5.687640000000000029e+00 7.739869999999999806e+00 6.256099999999999994e+00 2.527820000000000178e+00 9.287879999999999470e+00 7.149849999999999817e+00 5.055710000000000370e+00 4.643889999999999851e+00 8.937199999999999589e-01 2.527820000000000178e+00 7.739919999999999689e+00 2.681150000000000144e+00 0.000000000000000000e+00 1.083588999999999913e+01 4.468619999999999592e+00 5.055710000000000370e+00 1.238390000000000057e+01 7.149849999999999817e+00 5.055710000000000370e+00 6.191950000000000287e+00 0.000000000000000000e+00 0.000000000000000000e+00 7.739919999999999689e+00 8.937199999999999589e-01 2.527820000000000178e+00 1.547960000000000003e+00 2.681150000000000144e+00 0.000000000000000000e+00 3.095930000000000071e+00 3.574870000000000214e+00 2.527820000000000178e+00 4.643939999999999735e+00 4.468619999999999592e+00 5.055710000000000370e+00 3.095979999999999954e+00 5.362390000000000434e+00 0.000000000000000000e+00 4.643939999999999735e+00 6.256099999999999994e+00 2.527820000000000178e+00 6.191950000000000287e+00 7.149849999999999817e+00 5.055710000000000370e+00 0.000000000000000000e+00 0.000000000000000000e+00 0.000000000000000000e+00 1.547960000000000003e+00 8.937199999999999589e-01 2.527820000000000178e+00 3.095979999999999954e+00 1.787460000000000049e+00 5.055710000000000370e+00
4.643889999999999851e+00 2.681150000000000144e+00 0.000000000000000000e+00 6.191860000000000142e+00 3.574870000000000214e+00 2.527820000000000178e+00 7.739869999999999806e+00 4.468619999999999592e+00 5.055710000000000370e+00 6.191900000000000404e+00 5.362390000000000434e+00 0.000000000000000000e+00 4.643889999999999851e+00 8.937199999999999589e-01 2.527820000000000178e+00 9.287879999999999470e+00 3.574870000000000214e+00 2.527820000000000178e+00 1.083588999999999913e+01 6.256099999999999994e+00 2.527820000000000178e+00 9.287929999999999353e+00 1.787460000000000049e+00 5.055710000000000370e+00 6.191950000000000287e+00 7.149849999999999817e+00 5.055710000000000370e+00 0.000000000000000000e+00 0.000000000000000000e+00 0.000000000000000000e+00 1.547919999999999963e+00 8.936899999999999844e-01 6.319299999999999917e-01 3.095930000000000071e+00 1.787439999999999918e+00 3.159829999999999917e+00 4.643889999999999851e+00 2.681150000000000144e+00 5.687640000000000029e+00 3.095930000000000071e+00 3.574920000000000098e+00 6.319299999999999917e-01 4.643939999999999735e+00 4.468670000000000364e+00 3.159829999999999917e+00 6.191900000000000404e+00 5.362390000000000434e+00 5.687640000000000029e+00 4.643889999999999851e+00 6.256079999999999863e+00 6.319299999999999917e-01 6.191900000000000404e+00 7.149820000000000064e+00 3.159829999999999917e+00 7.739869999999999806e+00 8.043540000000000134e+00 5.687640000000000029e+00 4.643939999999999735e+00 8.936899999999999844e-01 6.319299999999999917e-01 6.191950000000000287e+00 1.787439999999999918e+00 3.159829999999999917e+00 7.739919999999999689e+00 2.681150000000000144e+00 5.687640000000000029e+00 6.191950000000000287e+00 3.574920000000000098e+00 6.319299999999999917e-01 7.739959999999999951e+00 4.468670000000000364e+00 3.159829999999999917e+00 9.287929999999999353e+00 5.362390000000000434e+00 5.687640000000000029e+00 7.739919999999999689e+00 6.256079999999999863e+00 6.319299999999999917e-01 9.287929999999999353e+00 7.149820000000000064e+00 3.159829999999999917e+00 1.083588999999999913e+01 8.043540000000000134e+00 5.687640000000000029e+00 7.739869999999999806e+00 8.936899999999999844e-01 6.319299999999999917e-01 9.287879999999999470e+00 1.787439999999999918e+00 3.159829999999999917e+00 1.083583999999999925e+01 2.681150000000000144e+00 5.687640000000000029e+00 9.287879999999999470e+00 3.574920000000000098e+00 6.319299999999999917e-01 1.083588999999999913e+01 4.468670000000000364e+00 3.159829999999999917e+00 1.238386000000000031e+01 5.362390000000000434e+00 5.687640000000000029e+00 1.083583999999999925e+01 6.256079999999999863e+00 6.319299999999999917e-01 1.238386000000000031e+01 7.149820000000000064e+00 3.159829999999999917e+00 1.393182000000000009e+01 8.043540000000000134e+00 5.687640000000000029e+00 7.739869999999999806e+00 6.256099999999999994e+00 2.527820000000000178e+00 9.287879999999999470e+00 7.149849999999999817e+00 5.055710000000000370e+00 3.095930000000000071e+00 0.000000000000000000e+00 0.000000000000000000e+00 6.191900000000000404e+00 1.787460000000000049e+00 5.055710000000000370e+00 7.739919999999999689e+00 2.681150000000000144e+00 0.000000000000000000e+00 1.083588999999999913e+01 4.468619999999999592e+00 5.055710000000000370e+00 9.287929999999999353e+00 5.362390000000000434e+00 0.000000000000000000e+00 1.238390000000000057e+01 7.149849999999999817e+00 5.055710000000000370e+00 6.191950000000000287e+00 0.000000000000000000e+00 0.000000000000000000e+00 7.739919999999999689e+00 8.937199999999999589e-01 2.527820000000000178e+00 1.547960000000000003e+00 2.681150000000000144e+00 0.000000000000000000e+00 3.095930000000000071e+00 3.574870000000000214e+00 2.527820000000000178e+00 4.643939999999999735e+00 4.468619999999999592e+00 5.055710000000000370e+00 3.095979999999999954e+00 5.362390000000000434e+00 0.000000000000000000e+00 4.643939999999999735e+00 6.256099999999999994e+00 2.527820000000000178e+00 1.547960000000000003e+00 8.937199999999999589e-01 2.527820000000000178e+00 3.095979999999999954e+00 1.787460000000000049e+00 5.055710000000000370e+00
4.643889999999999851e+00 2.681150000000000144e+00 0.000000000000000000e+00 6.191860000000000142e+00 3.574870000000000214e+00 2.527820000000000178e+00 7.739869999999999806e+00 4.468619999999999592e+00 5.055710000000000370e+00 6.191900000000000404e+00 5.362390000000000434e+00 0.000000000000000000e+00 4.643889999999999851e+00 8.937199999999999589e-01 2.527820000000000178e+00 6.191950000000000287e+00 0.000000000000000000e+00 0.000000000000000000e+00 9.287929999999999353e+00 1.787460000000000049e+00 5.055710000000000370e+00 1.547960000000000003e+00 2.681150000000000144e+00 0.000000000000000000e+00 4.643939999999999735e+00 6.256099999999999994e+00 2.527820000000000178e+00 1.547960000000000003e+00 8.937199999999999589e-01 2.527820000000000178e+00 1.547919999999999963e+00 8.936899999999999844e-01 6.319299999999999917e-01 3.095930000000000071e+00 1.787439999999999918e+00 3.159829999999999917e+00 4.643889999999999851e+00 2.681150000000000144e+00 5.687640000000000029e+00 3.095930000000000071e+00 3.574920000000000098e+00 6.319299999999999917e-01 4.643939999999999735e+00 4.468670000000000364e+00 3.159829999999999917e+00 6.191900000000000404e+00 5.362390000000000434e+00 5.687640000000000029e+00 4.643889999999999851e+00 6.256079999999999863e+00 6.319299999999999917e-01 6.191900000000000404e+00 7.149820000000000064e+00 3.159829999999999917e+00 7.739869999999999806e+00 8.043540000000000134e+00 5.687640000000000029e+00 4.643939999999999735e+00 8.936899999999999844e-01 6.319299999999999917e-01 6.191950000000000287e+00 1.787439999999999918e+00 3.159829999999999917e+00 7.739919999999999689e+00 2.681150000000000144e+00 5.687640000000000029e+00 6.191950000000000287e+00 3.574920000000000098e+00 6.319299999999999917e-01 7.739959999999999951e+00 4.468670000000000364e+00 3.159829999999999917e+00 9.287929999999999353e+00 5.362390000000000434e+00 5.687640000000000029e+00 7.739919999999999689e+00 6.256079999999999863e+00 6.319299999999999917e-01 9.287929999999999353e+00 7.149820000000000064e+00 3.159829999999999917e+00 1.083588999999999913e+01 8.043540000000000134e+00 5.687640000000000029e+00 7.739869999999999806e+00 8.936899999999999844e-01 6.319299999999999917e-01 9.287879999999999470e+00 1.787439999999999918e+00 3.159829999999999917e+00 1.083583999999999925e+01 2.681150000000000144e+00 5.687640000000000029e+00 9.287879999999999470e+00 3.574920000000000098e+00 6.319299999999999917e-01 1.083588999999999913e+01 4.468670000000000364e+00 3.159829999999999917e+00 1.238386000000000031e+01 5.362390000000000434e+00 5.687640000000000029e+00 1.083583999999999925e+01 6.256079999999999863e+00 6.319299999999999917e-01 1.238386000000000031e+01 7.149820000000000064e+00 3.159829999999999917e+00 1.393182000000000009e+01 8.043540000000000134e+00 5.687640000000000029e+00 7.739869999999999806e+00 6.256099999999999994e+00 2.527820000000000178e+00 9.287879999999999470e+00 7.149849999999999817e+00 5.055710000000000370e+00 3.095930000000000071e+00 0.000000000000000000e+00 0.000000000000000000e+00 6.191900000000000404e+00 1.787460000000000049e+00 5.055710000000000370e+00 7.739919999999999689e+00 2.681150000000000144e+00 0.000000000000000000e+00 9.287879999999999470e+00 3.574870000000000214e+00 2.527820000000000178e+00 1.083588999999999913e+01 4.468619999999999592e+00 5.055710000000000370e+00 9.287929999999999353e+00 5.362390000000000434e+00 0.000000000000000000e+00 1.083588999999999913e+01 6.256099999999999994e+00 2.527820000000000178e+00 1.238390000000000057e+01 7.149849999999999817e+00 5.055710000000000370e+00 7.739919999999999689e+00 8.937199999999999589e-01 2.527820000000000178e+00 3.095930000000000071e+00 3.574870000000000214e+00 2.527820000000000178e+00 4.643939999999999735e+00 4.468619999999999592e+00 5.055710000000000370e+00 3.095979999999999954e+00 5.362390000000000434e+00 0.000000000000000000e+00 6.191950000000000287e+00 7.149849999999999817e+00 5.055710000000000370e+00 0.000000000000000000e+00 0.000000000000000000e+00 0.000000000000000000e+00 3.095979999999999954e+00 1.787460000000000049e+00 5.055710000000000370e+00
4.643889999999999851e+00 2.681150000000000144e+00 0.000000000000000000e+00 6.191860000000000142e+00 3.574870000000000214e+00 2.527820000000000178e+00 7.739869999999999806e+00 4.468619999999999592e+00 5.055710000000000370e+00 6.191900000000000404e+00 5.362390000000000434e+00 0.000000000000000000e+00 4.643889999999999851e+00 8.937199999999999589e-01 2.527820000000000178e+00 6.191950000000000287e+00 0.000000000000000000e+00 0.000000000000000000e+00 4.643939999999999735e+00 4.468619999999999592e+00 5.055710000000000370e+00 3.095979999999999954e+00 5.362390000000000434e+00 0.000000000000000000e+00 6.191950000000000287e+00 7.149849999999999817e+00 5.055710000000000370e+00 0.000000000000000000e+00 0.000000000000000000e+00 0.000000000000000000e+00 1.547919999999999963e+00 8.936899999999999844e-01 6.319299999999999917e-01 3.095930000000000071e+00 1.787439999999999918e+00 3.159829999999999917e+00 4.643889999999999851e+00 2.681150000000000144e+00 5.687640000000000029e+00 3.095930000000000071e+00 3.574920000000000098e+00 6.319299999999999917e-01 4.643939999999999735e+00 4.468670000000000364e+00 3.159829999999999917e+00 6.191900000000000404e+00 5.362390000000000434e+00 5.687640000000000029e+00 4.643889999999999851e+00 6.256079999999999863e+00 6.319299999999999917e-01 6.191900000000000404e+00 7.149820000000000064e+00 3.159829999999999917e+00 7.739869999999999806e+00 8.043540000000000134e+00 5.687640000000000029e+00 4.643939999999999735e+00 8.936899999999999844e-01 6.319299999999999917e-01 6.191950000000000287e+00 1.787439999999999918e+00 3.159829999999999917e+00 7.739919999999999689e+00 2.681150000000000144e+00 5.687640000000000029e+00 6.191950000000000287e+00 3.574920000000000098e+00 6.319299999999999917e-01 7.739959999999999951e+00 4.468670000000000364e+00 3.159829999999999917e+00 9.287929999999999353e+00 5.362390000000000434e+00 5.687640000000000029e+00 7.739919999999999689e+00 6.256079999999999863e+00 6.319299999999999917e-01 9.287929999999999353e+00 7.149820000000000064e+00 3.159829999999999917e+00 1.083588999999999913e+01 8.043540000000000134e+00 5.687640000000000029e+00 7.739869999999999806e+00 8.936899999999999844e-01 6.319299999999999917e-01 9.287879999999999470e+00 1.787439999999999918e+00 3.159829999999999917e+00 1.083583999999999925e+01 2.681150000000000144e+00 5.687640000000000029e+00 9.287879999999999470e+00 3.574920000000000098e+00 6.319299999999999917e-01 1.083588999999999913e+01 4.468670000000000364e+00 3.159829999999999917e+00 1.238386000000000031e+01 5.362390000000000434e+00 5.687640000000000029e+00 1.083583999999999925e+01 6.256079999999999863e+00 6.319299999999999917e-01 1.238386000000000031e+01 7.149820000000000064e+00 3.159829999999999917e+00 1.393182000000000009e+01 8.043540000000000134e+00 5.687640000000000029e+00 7.739869999999999806e+00 6.256099999999999994e+00 2.527820000000000178e+00 9.287879999999999470e+00 7.149849999999999817e+00 5.055710000000000370e+00 3.095930000000000071e+00 0.000000000000000000e+00 0.000000000000000000e+00 6.191900000000000404e+00 1.787460000000000049e+00 5.055710000000000370e+00 7.739919999999999689e+00 2.681150000000000144e+00 0.000000000000000000e+00 9.287879999999999470e+00 3.574870000000000214e+00 2.527820000000000178e+00 1.083588999999999913e+01 4.468619999999999592e+00 5.055710000000000370e+00 9.287929999999999353e+00 5.362390000000000434e+00 0.000000000000000000e+00 1.083588999999999913e+01 6.256099999999999994e+00 2.527820000000000178e+00 1.238390000000000057e+01 7.149849999999999817e+00 5.055710000000000370e+00 7.739919999999999689e+00 8.937199999999999589e-01 2.527820000000000178e+00 9.287929999999999353e+00 1.787460000000000049e+00 5.055710000000000370e+00 1.547960000000000003e+00 2.681150000000000144e+00 0.000000000000000000e+00 3.095930000000000071e+00 3.574870000000000214e+00 2.527820000000000178e+00 4.643939999999999735e+00 6.256099999999999994e+00 2.527820000000000178e+00 1.547960000000000003e+00 8.937199999999999589e-01 2.527820000000000178e+00 3.095979999999999954e+00 1.787460000000000049e+00 5.055710000000000370e+00