-4.196480449200000180e+02
-4.196760447600000248e+02
-4.196540061599999945e+02
-4.197311259599999858e+02
-4.195483913599999823e+02
-4.196086183799999958e+02
-4.196421732100000099e+02
-4.196539580400000204e+02
-4.196594701099999725e+02
-4.195756113200000073e+02
