-3.128700000000000231e-02 1.687999999999999917e-02 1.786770000000000025e-01 -3.275190000000000046e-01 1.432239999999999902e-01 -1.229729999999999990e-01 -1.311690000000000078e-01 1.187610000000000054e-01 1.517640000000000100e-01 5.108300000000000340e-02 -1.602750000000000008e-01 2.099920000000000120e-01 -1.849520000000000053e-01 1.461179999999999979e-01 -1.011129999999999945e-01 -1.443869999999999876e-01 8.429799999999999793e-02 -2.385799999999999865e-01 -2.247190000000000021e-01 -2.049999999999999956e-04 -9.155999999999999209e-03 3.819399999999999878e-02 -2.498399999999999926e-02 2.599199999999999844e-01 -1.844129999999999936e-01 1.354049999999999976e-01 1.147800000000000036e-02 2.917529999999999846e-01 -2.097880000000000023e-01 -1.018259999999999998e-01 -4.910599999999999687e-02 -2.903400000000000078e-02 3.677929999999999922e+00 -2.110199999999999923e-02 -3.500767999999999880e+00 -2.492131999999999792e+00 -1.158999999999999961e-02 -4.433999999999999574e-03 -1.566299999999999984e-02 2.932085999999999970e+00 -1.729441999999999924e+00 -1.166126999999999914e+00 2.929854999999999876e+00 -1.709875000000000034e+00 -1.167454999999999909e+00 2.913250999999999813e+00 -1.739595000000000002e+00 -1.192296999999999940e+00 2.987038000000000082e+00 -1.660295999999999994e+00 -1.213303999999999938e+00 3.005611000000000033e+00 1.770694999999999908e+00 -2.523366999999999916e+00 -3.707900000000000085e-02 5.288899999999999851e-02 -5.145399999999999974e-02 3.125827999999999829e+00 1.777722000000000024e+00 1.273187000000000069e+00 -3.000145999999999979e+00 1.719848999999999961e+00 -2.466803000000000079e+00 5.662000000000000366e-03 3.366378000000000092e+00 -1.294871000000000105e+00 -3.022914999999999797e+00 1.796621000000000024e+00 1.215311999999999948e+00 -3.028602999999999934e+00 1.761462000000000083e+00 1.304511999999999894e+00 -3.008135999999999921e+00 -1.768915000000000015e+00 2.452541000000000082e+00 4.044099999999999778e-02 -3.655126999999999793e+00 1.285989000000000049e+00 -2.941759999999999931e+00 1.710047000000000095e+00 -2.532303000000000193e+00 3.112474999999999881e+00 -1.756132999999999944e+00 2.475277999999999867e+00 -2.988570999999999867e+00 -1.751144999999999952e+00 -1.136617999999999906e+00 2.932595000000000063e+00 -1.704979999999999940e+00 -1.219840999999999953e+00 -5.347099999999999770e-02 4.536199999999999954e-02 3.646786999999999779e+00 -2.872500000000000053e-02 3.471493999999999858e+00 -1.119372000000000034e+00 -5.989900000000000085e-02 3.654099999999999709e-02 2.835700000000000026e-02 -4.004499999999999726e-02 3.477129999999999832e+00 -1.222995999999999972e+00 -3.102047000000000221e+00 1.797781000000000073e+00 -2.450984000000000052e+00 -4.700200000000000211e-02 7.210300000000000042e-02 3.702265999999999835e+00 -3.144738999999999951e+00 -1.702428999999999970e+00 2.499032999999999838e+00 -4.055119999999999836e-01 2.246499999999999886e-02 2.155549999999999966e-01 -2.207999999999999893e-03 1.727549999999999919e-01 1.026920000000000055e-01 -1.183310000000000056e-01 3.277059999999999973e-01 1.013529999999999986e-01 -1.926229999999999887e-01 2.109669999999999879e-01 -1.220269999999999966e-01 2.420619999999999994e-01 1.341499999999999915e-01 -1.626440000000000108e-01 -9.034999999999999976e-02 4.661000000000000212e-03 1.686560000000000004e-01 -3.080499999999999905e-01 4.903799999999999826e-02 1.268599999999999936e-02 -1.024110000000000020e-01 -8.042599999999999749e-02 -1.375689999999999968e-01 3.276899999999999952e-02 8.330200000000000105e-02 2.241350000000000009e-01 3.823849999999999749e-01 4.884200000000000347e-02 -5.444999999999999840e-02 2.843589999999999729e-01 -1.868900000000000006e-01 -3.181419999999999804e-01 3.346779999999999755e-01 -5.859799999999999731e-02 -1.945129999999999915e-01 3.128460000000000130e-01 -2.654030000000000000e-01 -4.440140000000000198e-01 4.451359999999999761e-01 -1.991839999999999999e-01 -9.862799999999999345e-02 4.037180000000000213e-01 -1.217550000000000021e-01 2.867300000000000057e-02 9.141599999999999726e-02 -2.148940000000000017e-01 -8.545600000000000418e-02 1.376290000000000013e-01 -3.200680000000000192e-01 2.299009999999999942e-01
-2.046930000000000138e-01 6.328300000000000591e-02 2.441359999999999919e-01 -1.919069999999999943e-01 1.474949999999999872e-01 -1.495299999999999963e-01 -1.485599999999999976e-01 2.602269999999999861e-01 5.099000000000000060e-02 -9.356599999999999639e-02 -1.431199999999999972e-01 2.639850000000000252e-01 -1.609279999999999877e-01 1.120170000000000055e-01 9.753799999999999970e-02 -2.222129999999999939e-01 5.516599999999999976e-02 -2.872999999999999998e-01 7.659499999999999642e-02 -1.431369999999999865e-01 6.837899999999999534e-02 2.039300000000000140e-02 2.708800000000000097e-02 -2.006960000000000133e-01 3.138059999999999738e-01 -8.864000000000000351e-03 -7.026000000000000127e-03 2.119240000000000013e-01 -2.008850000000000080e-01 -4.521800000000000125e-02 -3.574299999999999700e-02 -1.172210000000000057e-01 3.657093999999999845e+00 -2.282000000000000174e-03 -3.458534999999999915e+00 -2.436843000000000092e+00 6.526200000000000057e-02 -3.177300000000000263e-02 -4.495400000000000090e-02 2.962276999999999827e+00 -1.740104000000000095e+00 -1.152868000000000004e+00 3.030299999999999994e+00 -1.746032999999999946e+00 -1.128644999999999898e+00 2.993250999999999884e+00 1.684790000000000010e+00 -2.549409999999999954e+00 3.041281999999999819e+00 -1.653167999999999971e+00 -1.224317000000000100e+00 3.025199000000000193e+00 1.798089000000000048e+00 1.191019999999999968e+00 -2.931563000000000141e+00 -1.687910000000000021e+00 -1.277409000000000017e+00 1.790100000000000025e-02 3.446467000000000169e+00 2.486952000000000051e+00 4.366699999999999748e-02 -4.789999999999999879e-04 -3.742176000000000169e+00 -5.006900000000000239e-02 3.388456999999999830e+00 -1.305231000000000030e+00 -3.021396000000000193e+00 1.817492000000000107e+00 1.216204000000000063e+00 -3.041049999999999809e+00 1.777312000000000003e+00 1.288248000000000060e+00 -2.970142000000000060e+00 -1.837177000000000060e+00 2.426077999999999957e+00 -3.109999999999999917e-03 -3.664722999999999953e+00 1.240863000000000049e+00 -2.950560999999999989e+00 1.699494999999999978e+00 -2.539930000000000021e+00 9.095499999999999419e-02 2.552400000000000155e-02 3.591263999999999790e+00 4.686000000000000061e-03 -1.313399999999999984e-02 3.726710999999999885e+00 -6.609299999999999897e-02 -3.529860000000000220e+00 -2.476656000000000191e+00 -1.185120000000000062e-01 4.183900000000000119e-02 -1.534800000000000053e-02 -5.811299999999999799e-02 3.433591999999999977e+00 -1.152598000000000011e+00 -8.384199999999999986e-02 5.089300000000000074e-02 7.707700000000000662e-02 -3.748699999999999949e-02 1.065819999999999962e-01 -1.282499999999999959e-02 -3.048038000000000025e+00 -1.714207999999999954e+00 -1.120489000000000068e+00 -4.628100000000000269e-02 3.540779000000000121e+00 -1.181002000000000107e+00 2.976818000000000186e+00 -1.761292999999999997e+00 2.456214999999999815e+00 -5.755139999999999700e-01 9.302499999999999658e-02 2.426959999999999951e-01 -5.578099999999999725e-02 4.135269999999999779e-01 2.381520000000000026e-01 -1.202570000000000028e-01 2.434260000000000035e-01 2.059880000000000044e-01 -1.916400000000000048e-02 1.523460000000000092e-01 7.691699999999999926e-02 9.289200000000000235e-02 1.145700000000000052e-01 -2.645310000000000161e-01 -3.943999999999999589e-03 -2.340839999999999865e-01 1.158499999999999946e-01 -2.738539999999999863e-01 4.268299999999999872e-02 -3.278130000000000210e-01 1.242790000000000006e-01 -8.652899999999999481e-02 2.717240000000000211e-01 -1.271889999999999965e-01 9.650000000000000244e-02 8.477700000000000513e-02 2.997679999999999789e-01 5.444899999999999740e-02 8.864600000000000257e-02 3.827780000000000071e-01 2.192820000000000047e-01 8.298600000000000421e-02 2.255500000000000005e-01 -2.273600000000000065e-01 -3.980520000000000169e-01 2.104330000000000089e-01 -1.785399999999999834e-02 -2.089199999999999946e-01 2.722700000000000120e-02 -4.283890000000000198e-01 -2.660569999999999879e-01 3.551599999999999757e-01 -6.401600000000000346e-02 -1.611720000000000097e-01 1.963769999999999960e-01 -7.311199999999999644e-02 2.187300000000000078e-01 -1.269280000000000130e-01 -3.234279999999999933e-01 -3.220499999999999752e-02
-6.987799999999999567e-02 -2.052869999999999973e-01 -1.567320000000000102e-01 -3.053600000000000064e-02 6.707100000000000561e-02 5.075600000000000250e-02 3.831699999999999690e-02 1.517010000000000025e-01 1.434040000000000037e-01 -3.268900000000000278e-02 -1.097100000000000020e-01 1.450980000000000047e-01 -2.176460000000000061e-01 -6.703099999999999337e-02 2.321630000000000082e-01 -1.242439999999999933e-01 -1.053489999999999982e-01 -7.486099999999999699e-02 -1.688129999999999908e-01 2.025170000000000026e-01 -2.014299999999999979e-01 1.368020000000000069e-01 1.227530000000000010e-01 6.385899999999999910e-02 1.927909999999999902e-01 -6.419900000000000606e-02 -2.300260000000000082e-01 2.932580000000000187e-01 1.869499999999999981e-02 2.397200000000000025e-02 -5.550399999999999778e-02 3.380320999999999909e+00 -1.225038000000000071e+00 -5.833999999999999776e-03 -3.399999999999999973e-05 -7.625899999999999346e-02 1.826600000000000099e-02 4.942000000000000212e-03 7.384200000000000486e-02 -4.108699999999999852e-02 -3.516303999999999874e+00 -2.396522000000000041e+00 2.997811000000000003e+00 -1.683399000000000090e+00 -1.282435999999999909e+00 3.010539000000000076e+00 1.713611999999999913e+00 1.327326000000000006e+00 3.008745999999999921e+00 -1.708202999999999916e+00 -1.169580999999999982e+00 2.999392999999999976e+00 -1.793835000000000068e+00 2.444106999999999807e+00 -2.961797999999999931e+00 -1.701384999999999925e+00 -1.179675000000000029e+00 3.031785999999999870e+00 1.721257000000000037e+00 -2.430041999999999813e+00 7.549200000000000355e-02 3.470600000000000129e+00 -1.242118000000000055e+00 2.988377999999999979e+00 1.678048999999999902e+00 -2.489910000000000068e+00 5.602000000000000035e-02 9.293400000000000272e-02 -7.816000000000000031e-03 -3.051330999999999793e+00 1.798675999999999942e+00 1.218928999999999929e+00 -2.955951000000000217e+00 -1.721440000000000081e+00 2.414572000000000163e+00 -3.094139999999999890e+00 -1.853093000000000101e+00 2.521729999999999805e+00 -2.922622000000000053e+00 -1.838154999999999983e+00 -1.316078999999999999e+00 9.909700000000000453e-02 -6.570999999999999584e-03 3.734469999999999956e+00 -3.019705999999999779e+00 1.788311999999999902e+00 -2.490032999999999941e+00 -2.483000000000000138e-02 2.219600000000000045e-02 3.588671999999999862e+00 -3.049120999999999970e+00 -1.716145000000000032e+00 2.455792000000000197e+00 -2.284600000000000172e-02 -3.541504000000000207e+00 -2.498372999999999955e+00 -5.048099999999999810e-02 1.036519999999999941e-01 -8.631999999999999396e-02 2.574299999999999852e-02 8.731300000000000172e-02 3.705331999999999848e+00 -6.232700000000000046e-02 3.475938000000000194e+00 -1.094730999999999899e+00 4.021899999999999781e-02 1.949700000000000044e-02 -1.675799999999999859e-02 2.952925000000000022e+00 1.729352000000000000e+00 -2.481408000000000058e+00 -5.523730000000000029e-01 -2.085239999999999871e-01 2.632729999999999793e-01 1.363840000000000052e-01 3.897329999999999961e-01 -1.580129999999999868e-01 -1.444499999999999951e-01 2.968169999999999975e-01 -1.781919999999999893e-01 -1.202499999999999923e-02 3.733199999999999852e-01 -2.810999999999999957e-02 3.993100000000000122e-02 -1.706900000000000084e-01 2.569520000000000137e-01 -3.145970000000000155e-01 -1.857749999999999957e-01 3.348920000000000230e-01 1.303630000000000067e-01 5.302099999999999869e-02 -1.946050000000000002e-01 -1.400579999999999881e-01 3.146499999999999991e-02 -8.334800000000000542e-02 1.020569999999999949e-01 -9.244000000000000480e-03 1.487670000000000103e-01 -1.904409999999999992e-01 2.636870000000000047e-01 1.248680000000000068e-01 1.363050000000000095e-01 -4.077910000000000146e-01 -6.862000000000000044e-03 1.775150000000000061e-01 -1.617639999999999911e-01 1.165550000000000058e-01 4.321500000000000341e-02 -1.294119999999999993e-01 -4.982570000000000054e-01 3.220870000000000122e-01 -2.784460000000000268e-01 8.559700000000000641e-02 8.887299999999999367e-02 1.121010000000000062e-01 -4.562459999999999849e-01 3.098830000000000195e-01 2.459590000000000110e-01 2.758479999999999821e-01 -1.368679999999999897e-01 -2.321999999999999897e-01 -9.990000000000001049e-04
-3.566259999999999986e-01 -1.465499999999999962e-02 -1.066499999999999913e-02 -5.272600000000000203e-02 2.724299999999999986e-02 2.538549999999999973e-01 1.152999999999999945e-03 -2.737600000000000033e-01 1.045930000000000054e-01 -5.376800000000000329e-02 2.468640000000000001e-01 -5.954899999999999777e-02 4.840000000000000010e-04 7.629000000000000364e-03 -2.939689999999999803e-01 1.250330000000000052e-01 2.023439999999999961e-01 1.425059999999999938e-01 -9.228899999999999604e-02 1.903310000000000002e-01 2.146689999999999987e-01 -9.343200000000000116e-02 2.640759999999999774e-01 1.079709999999999975e-01 -2.471980000000000011e-01 -1.366020000000000012e-01 -9.543999999999999706e-02 -1.629980000000000040e-01 2.823709999999999831e-01 1.983520000000000005e-01 2.893708999999999865e+00 -1.727943999999999924e+00 -1.174616000000000104e+00 -5.919200000000000156e-02 4.987400000000000166e-02 5.898999999999999730e-03 2.958216000000000179e+00 -1.671626999999999974e+00 -1.181739000000000095e+00 2.859084999999999877e+00 -1.679540999999999951e+00 -1.186841000000000035e+00 2.987087999999999965e+00 -1.637707999999999942e+00 -1.154997999999999969e+00 2.892434000000000172e+00 -1.684102999999999906e+00 -1.237697000000000047e+00 2.989859000000000044e+00 -1.632633999999999919e+00 -1.157783000000000007e+00 -1.163830000000000003e-01 -2.918000000000000108e-02 -2.088500000000000079e-02 -5.857899999999999913e-02 2.346699999999999828e-02 4.534099999999999936e-02 -2.970310000000000006e+00 1.719522999999999913e+00 -2.478418000000000010e+00 7.460700000000000665e-02 3.440624000000000127e+00 2.421882000000000090e+00 -1.072900000000000069e-02 4.183000000000000086e-03 2.939000000000000206e-03 -3.000223000000000084e+00 1.711044000000000009e+00 1.210930000000000062e+00 2.070400000000000018e-02 -3.572255000000000180e+00 1.198557000000000095e+00 -2.970717000000000052e+00 -1.764564999999999939e+00 2.446660000000000057e+00 2.182900000000000118e-02 -5.971300000000000219e-02 -3.767167999999999850e+00 3.057466999999999935e+00 -1.791061000000000014e+00 -1.266783999999999910e+00 7.639500000000000457e-02 3.431719000000000186e+00 2.436710999999999849e+00 -1.018600000000000061e-02 5.088199999999999668e-02 6.254999999999999449e-02 -2.165800000000000017e-02 3.488659999999999872e+00 2.450331999999999955e+00 -3.006031000000000120e+00 -1.693278999999999979e+00 -1.196960000000000024e+00 -1.367349999999999954e-01 3.511570999999999998e+00 2.483261999999999858e+00 -3.117551999999999879e+00 1.819585000000000008e+00 -2.450933000000000028e+00 -1.128599999999999916e-02 7.541200000000000681e-02 2.698499999999999857e-02 -3.116821999999999981e+00 -1.703378000000000059e+00 2.533136999999999972e+00 -3.028738999999999848e+00 -1.719360999999999917e+00 -1.216155000000000097e+00 -2.043999999999999984e-02 3.474075000000000024e+00 2.472865999999999786e+00 1.829599999999999976e-02 1.155699999999999956e-02 9.459999999999999659e-03 -2.259619999999999962e-01 1.199940000000000034e-01 1.709759999999999891e-01 -2.246539999999999926e-01 2.027009999999999923e-01 5.765499999999999792e-02 -9.729500000000000648e-02 7.029699999999999838e-02 4.901699999999999807e-02 -3.711229999999999807e-01 -1.357949999999999990e-01 7.351000000000000589e-02 -2.088859999999999884e-01 1.975119999999999931e-01 2.131349999999999911e-01 -3.722599999999999798e-01 2.377299999999999899e-02 -1.540080000000000060e-01 -2.078669999999999962e-01 2.678039999999999865e-01 1.166060000000000013e-01 6.596830000000000194e-01 -1.100030000000000036e-01 -7.858199999999999907e-02 2.754229999999999734e-01 -2.815779999999999950e-01 -3.385020000000000251e-01 4.639800000000000035e-01 -2.873589999999999756e-01 -1.923799999999999955e-01 2.726819999999999800e-01 -4.154840000000000200e-01 -1.539600000000000135e-01 3.157179999999999986e-01 -3.453399999999999803e-01 -2.429119999999999890e-01 4.733229999999999937e-01 4.075100000000000250e-02 -2.993000000000000001e-03 4.627539999999999987e-01 -2.774099999999999899e-01 -2.082680000000000087e-01 4.748620000000000063e-01 1.178500000000000034e-02 4.090099999999999986e-02 4.787899999999999795e-02 -3.233170000000000210e-01 -2.290550000000000086e-01
-1.983169999999999933e-01 5.099900000000000266e-02 1.099509999999999932e-01 -1.044849999999999945e-01 -3.715700000000000253e-02 5.095299999999999829e-02 8.298400000000000221e-02 -7.630399999999999683e-02 -7.792000000000000315e-03 -1.245720000000000022e-01 9.162499999999999811e-02 7.210199999999999942e-02 3.639300000000000174e-02 1.901609999999999967e-01 -8.980100000000000582e-02 -1.397430000000000061e-01 -1.822700000000000015e-02 1.156039999999999984e-01 -7.037899999999999712e-02 6.195300000000000112e-02 -1.306370000000000031e-01 5.604200000000000154e-02 2.463770000000000127e-01 -1.049469999999999986e-01 2.426780000000000048e-01 3.300299999999999762e-02 -1.084979999999999972e-01 7.012799999999999589e-02 -6.305700000000000194e-02 8.932999999999999968e-03 -2.986339000000000077e+00 -1.710151999999999894e+00 -1.234710999999999892e+00 2.967871999999999844e+00 -1.704838000000000076e+00 -1.203818999999999972e+00 2.460599999999999940e-02 4.096199999999999841e-02 3.631076000000000192e+00 2.910454000000000097e+00 -1.719009000000000009e+00 -1.176868000000000025e+00 2.992834000000000216e+00 -1.699937999999999949e+00 -1.156166999999999945e+00 2.997478000000000087e+00 1.721443000000000056e+00 -2.513023000000000007e+00 3.102574999999999861e+00 1.810950999999999977e+00 -2.499591999999999814e+00 -1.288999999999999998e-03 1.978999999999999856e-03 3.637563000000000102e+00 -2.948949999999999960e+00 -1.700117000000000100e+00 -1.268339000000000105e+00 1.423999999999999919e-02 3.554203999999999919e+00 2.495795999999999903e+00 -3.039146000000000125e+00 1.771711999999999954e+00 -2.531214999999999993e+00 3.020763999999999783e+00 1.741797999999999957e+00 -2.464773000000000103e+00 -3.085955999999999921e+00 1.813776000000000055e+00 1.241052000000000044e+00 5.263999999999999929e-02 -3.580296000000000145e+00 1.251128000000000018e+00 -2.988856000000000179e+00 -1.798572999999999977e+00 2.421209999999999862e+00 -2.948830000000000062e+00 -1.774267000000000039e+00 -1.241278000000000103e+00 3.129688999999999943e+00 1.768671000000000104e+00 -2.560572000000000070e+00 8.702799999999999425e-02 -4.392000000000000071e-02 3.617259999999999920e+00 2.964021999999999935e+00 -1.686017000000000099e+00 -1.208383999999999903e+00 2.977700000000000138e-02 3.549418000000000184e+00 2.494008000000000003e+00 -2.990057999999999883e+00 -1.660767000000000104e+00 -1.245624999999999982e+00 -9.031899999999999651e-02 1.188299999999999947e-02 3.667626999999999970e+00 -3.129364999999999952e+00 1.833885999999999905e+00 -2.486502000000000212e+00 -3.533000000000000029e-02 5.566000000000000114e-02 1.218299999999999939e-02 -6.814399999999999624e-02 1.489599999999999952e-02 3.628134999999999888e+00 -2.985495999999999928e+00 -1.719041999999999959e+00 -1.141698000000000102e+00 3.018070999999999948e+00 1.765319000000000083e+00 -2.538492000000000193e+00 -1.783659999999999968e-01 -2.270399999999999849e-02 -5.278200000000000253e-02 -2.092279999999999973e-01 4.337200000000000083e-02 2.882600000000000162e-01 -1.888170000000000126e-01 6.312900000000000456e-02 -2.256500000000000172e-02 -7.161299999999999610e-02 1.341870000000000007e-01 1.257880000000000109e-01 1.483740000000000059e-01 -1.123379999999999934e-01 7.227000000000000091e-02 -2.804889999999999883e-01 -9.101800000000000168e-02 1.576259999999999883e-01 4.328499999999999709e-02 1.973700000000000107e-02 3.394320000000000115e-01 -1.431000000000000050e-01 -1.427200000000000135e-01 -2.264000000000000040e-02 7.936799999999999411e-02 -5.264400000000000329e-02 9.561600000000000654e-02 -1.256569999999999909e-01 5.066299999999999970e-02 -1.646279999999999966e-01 2.598030000000000062e-01 -5.296000000000000013e-02 1.137510000000000049e-01 3.590659999999999963e-01 -2.229720000000000035e-01 -3.908449999999999980e-01 1.951039999999999996e-01 -3.765799999999999703e-02 -1.028260000000000007e-01 5.600700000000000123e-02 -1.955340000000000134e-01 -9.160799999999999499e-02 1.798200000000000076e-01 -1.427090000000000025e-01 1.027600000000000041e-02 1.247800000000000020e-01 -6.567299999999999527e-02 8.110599999999999754e-02 -1.130359999999999976e-01 -3.111550000000000149e-01 2.191900000000000098e-02
-1.738030000000000130e-01 -6.614000000000000434e-02 1.261130000000000029e-01 -2.696810000000000040e-01 7.632300000000000195e-02 -4.453499999999999820e-02 -1.257899999999999990e-02 -1.082300000000000068e-01 2.489030000000000131e-01 -1.462320000000000009e-01 1.038099999999999960e-02 2.097100000000000075e-01 -5.551699999999999691e-02 1.870169999999999888e-01 -2.386780000000000013e-01 -9.620499999999999885e-02 8.107399999999999329e-02 3.781500000000000139e-02 7.621200000000000196e-02 -5.900000000000000296e-04 8.298500000000000321e-02 3.131390000000000007e-01 -1.323590000000000044e-01 3.040199999999999847e-02 1.954019999999999924e-01 4.052999999999999658e-02 -1.382760000000000100e-01 2.596199999999999897e-02 -7.148799999999999599e-02 -1.441399999999999973e-02 -7.432199999999999918e-02 3.541408000000000111e+00 2.514571999999999807e+00 7.209999999999999612e-04 -3.538686999999999916e+00 -2.480125000000000135e+00 3.426099999999999979e-02 3.754799999999999804e-02 -6.559500000000000053e-02 -1.370200000000000064e-02 -3.519338999999999995e+00 -2.420595000000000052e+00 3.088766999999999818e+00 1.752094000000000040e+00 -2.438940000000000108e+00 3.010653000000000024e+00 -1.895242000000000093e+00 2.481208000000000080e+00 3.061462000000000128e+00 -1.728647000000000045e+00 2.487775000000000070e+00 -2.978050999999999782e+00 1.701295000000000002e+00 -2.546114000000000210e+00 1.714800000000000005e-02 -5.546500000000000041e-02 -5.087499999999999661e-02 3.125903000000000098e+00 1.750995999999999997e+00 1.297393999999999936e+00 -3.084611000000000214e+00 1.802937000000000012e+00 -2.443575000000000053e+00 3.010896999999999935e+00 1.742399999999999949e+00 -2.556039999999999868e+00 -3.025084999999999802e+00 1.829504000000000019e+00 1.235487999999999920e+00 -3.036448000000000036e+00 -1.798410999999999982e+00 2.490906999999999982e+00 -2.992443999999999882e+00 -1.760710999999999915e+00 2.414238999999999802e+00 -2.948072999999999944e+00 -1.810769000000000073e+00 -1.158616000000000090e+00 5.899900000000000283e-02 3.425505999999999940e+00 -1.236423000000000050e+00 2.533699999999999841e-02 -3.241299999999999737e-02 3.652210999999999874e+00 -2.983896999999999800e+00 -1.653332000000000024e+00 -1.197345000000000104e+00 3.090097000000000094e+00 -1.619963000000000042e+00 2.480471000000000092e+00 -3.052500999999999909e+00 -1.707607000000000097e+00 2.465313000000000088e+00 2.949812999999999796e+00 -1.710280000000000022e+00 -1.165637000000000034e+00 -4.266400000000000053e-02 3.965300000000000075e-02 7.126999999999999655e-03 -3.613800000000000345e-02 4.901900000000000007e-02 -1.542800000000000074e-02 -6.569600000000000439e-02 3.454002000000000017e+00 -1.104160999999999948e+00 2.956144000000000105e+00 -1.739008000000000109e+00 -1.220256999999999925e+00 -8.337300000000000266e-02 3.437823999999999991e+00 -1.195581999999999923e+00 -4.125099999999999878e-01 2.715000000000000191e-01 -1.702249999999999874e-01 -3.542680000000000273e-01 2.506939999999999724e-01 3.439169999999999727e-01 9.302599999999999758e-02 1.359150000000000080e-01 2.222000000000000017e-02 -1.446739999999999970e-01 2.068929999999999936e-01 8.279000000000000248e-02 -2.900300000000000100e-02 -2.636049999999999782e-01 -2.123750000000000082e-01 2.981599999999999806e-01 -2.464520000000000044e-01 1.577340000000000131e-01 -1.629849999999999910e-01 -1.352990000000000026e-01 2.078230000000000077e-01 3.883000000000000340e-02 2.425700000000000078e-01 -3.399619999999999864e-01 2.048889999999999878e-01 1.474610000000000087e-01 -2.405670000000000031e-01 2.353210000000000024e-01 1.263200000000000087e-02 1.079449999999999993e-01 4.467200000000000337e-02 -2.589029999999999943e-01 -2.280550000000000077e-01 2.281800000000000148e-02 -1.735329999999999928e-01 -3.841629999999999767e-01 1.379579999999999973e-01 -9.561799999999999466e-02 1.300219999999999987e-01 8.418399999999999495e-02 -7.560100000000000153e-02 -2.548369999999999802e-01 1.143679999999999974e-01 3.823059999999999792e-01 4.365299999999999736e-02 -6.872899999999999843e-02 6.126000000000000369e-03 2.367400000000000060e-02 2.804900000000000101e-02 -4.179169999999999829e-01 1.789870000000000072e-01
-3.209499999999999853e-02 1.499860000000000082e-01 5.408600000000000213e-02 -2.574569999999999914e-01 2.604400000000000118e-02 2.071979999999999933e-01 -2.861879999999999979e-01 -1.534499999999999927e-02 5.048300000000000010e-02 -2.485970000000000124e-01 1.220300000000000031e-02 2.015099999999999877e-02 1.024619999999999975e-01 2.401429999999999954e-01 -2.888299999999999895e-02 3.078230000000000133e-01 1.337099999999999921e-02 -1.286579999999999946e-01 2.106139999999999957e-01 -5.119499999999999745e-02 -2.089999999999999844e-02 9.032999999999999363e-02 6.042700000000000154e-02 -2.729249999999999732e-01 4.324999999999999678e-02 -1.082309999999999939e-01 2.052400000000000058e-02 -1.460710000000000064e-01 -1.408300000000000003e-02 -2.252220000000000055e-01 -2.942702000000000151e+00 -1.729047000000000001e+00 -1.184345999999999899e+00 3.022491000000000039e+00 -1.744860999999999995e+00 -1.337105999999999906e+00 7.575099999999999889e-02 3.494345000000000034e+00 2.471703000000000205e+00 3.054199000000000108e+00 1.745066000000000006e+00 -2.444414000000000087e+00 2.975117000000000012e+00 -1.812832999999999917e+00 2.413746999999999865e+00 -1.615400000000000169e-02 1.727999999999999935e-03 -3.703828000000000120e+00 6.519300000000000095e-02 -6.970999999999999766e-03 -3.890268999999999977e+00 9.745199999999999696e-02 4.449800000000000283e-02 3.580782000000000131e+00 -2.963109000000000215e+00 -1.812381000000000020e+00 2.460501999999999967e+00 3.093798000000000048e+00 1.813657999999999992e+00 1.334756999999999971e+00 -3.064754999999999896e+00 1.744218000000000046e+00 -2.537005000000000177e+00 1.726700000000000110e-02 3.457590000000000163e+00 -1.162917999999999896e+00 -3.131860000000000088e+00 1.869668000000000108e+00 1.230215999999999976e+00 -2.949752999999999847e+00 -1.786354999999999915e+00 2.440611999999999782e+00 -3.020537000000000027e+00 -1.749347999999999903e+00 2.491849999999999898e+00 -2.961841000000000168e+00 -1.717495999999999912e+00 -1.199340999999999990e+00 3.543600000000000222e-02 3.451983999999999941e+00 -1.290559999999999929e+00 1.691099999999999895e-02 -6.031500000000000056e-02 3.670873999999999970e+00 -1.733200000000000018e-02 -3.503544000000000214e+00 -2.435013999999999790e+00 -5.959099999999999814e-02 7.958400000000000196e-02 -2.726599999999999857e-02 -4.251499999999999724e-02 5.654200000000000198e-02 3.699319000000000024e+00 -7.049400000000000110e-02 8.977899999999999769e-02 9.172800000000000398e-02 -6.421200000000000518e-02 8.401999999999999746e-02 -5.440299999999999997e-02 2.924390999999999963e+00 -1.660395000000000065e+00 -1.212178999999999895e+00 3.011273999999999784e+00 1.737176999999999971e+00 -2.394460000000000033e+00 -1.042130000000000001e-01 -1.144099999999999978e-02 -5.348499999999999782e-02 2.937644000000000144e+00 -1.715495999999999910e+00 -1.145326000000000066e+00 -4.529520000000000213e-01 9.574399999999999578e-02 2.128599999999999937e-01 -3.533129999999999882e-01 1.017890000000000045e-01 3.329019999999999757e-01 -3.443970000000000087e-01 6.892999999999999822e-03 -2.716709999999999958e-01 -1.443109999999999948e-01 4.331690000000000262e-01 2.052990000000000093e-01 2.870170000000000221e-01 -2.060579999999999912e-01 -2.014360000000000039e-01 -3.001099999999999948e-02 -2.756830000000000114e-01 2.872900000000000106e-02 1.325939999999999896e-01 -3.281789999999999985e-01 2.007690000000000030e-01 1.102989999999999943e-01 -2.612929999999999975e-01 -3.683980000000000032e-01 3.640510000000000135e-01 2.295139999999999958e-01 -3.870099999999999929e-02 3.914409999999999834e-01 -2.130690000000000084e-01 -3.814599999999999935e-02 6.336100000000000065e-02 -1.824369999999999881e-01 -1.470519999999999883e-01 1.766129999999999922e-01 8.439000000000000667e-02 -1.012000000000000096e-03 -1.298590000000000022e-01 -6.392000000000000112e-03 -2.979160000000000141e-01 3.540220000000000034e-01 -1.615600000000000022e-02 1.009570000000000051e-01 7.004699999999999815e-02 1.997600000000000070e-02 3.513129999999999864e-01 -1.185060000000000002e-01 -2.166619999999999935e-01 1.343509999999999982e-01 -7.802499999999999714e-02 6.175900000000000140e-02 3.071289999999999853e-01