-3.926899999999999835e-02 -2.267200000000000118e-02 -1.640399999999999844e-02 1.485099999999999962e-02 8.574999999999999289e-03 -1.046099999999999981e-02 1.394000000000000057e-03 8.059999999999999673e-04 4.871299999999999936e-02 1.378899999999999917e-02 -8.788000000000000672e-03 1.094499999999999987e-02 1.400999999999999902e-03 -1.601100000000000093e-02 -1.000099999999999947e-02 -2.497800000000000020e-02 -1.682609999999999939e-01 7.404499999999999971e-02 7.200000000000000453e-04 4.651000000000000273e-02 -1.660000000000000017e-02 -2.435500000000000165e-02 1.500899999999999977e-02 -1.820499999999999896e-01 1.324559999999999904e-01 1.053349999999999981e-01 7.382299999999999973e-02 -7.169999999999999724e-04 1.633599999999999983e-02 1.094499999999999987e-02 -1.316600000000000062e-02 9.220000000000000764e-03 -1.000099999999999947e-02 -1.582079999999999875e-01 6.250000000000000000e-02 7.404499999999999971e-02 -1.441800000000000026e-02 -8.323000000000000537e-03 1.204200000000000062e-02 2.482999999999999964e-03 1.435000000000000078e-03 2.337000000000000102e-03 -1.981999999999999821e-03 -1.142999999999999919e-03 -4.590000000000000330e-03 -1.587610000000000132e-01 9.095699999999999619e-02 3.311200000000000254e-02 -7.140000000000000079e-04 -3.350000000000000113e-03 1.990000000000000015e-03 -1.330639999999999878e-01 1.065210000000000046e-01 7.388999999999999735e-02 4.063800000000000051e-02 -2.263099999999999834e-02 -1.660100000000000117e-02 8.210000000000000067e-04 -2.859499999999999889e-02 -1.820499999999999896e-01 1.574510000000000076e-01 6.204400000000000193e-02 7.382299999999999973e-02 -6.099999999999999737e-04 -1.829689999999999928e-01 3.311200000000000254e-02 -3.259000000000000178e-03 1.056999999999999997e-03 1.991000000000000148e-03 2.571800000000000128e-02 -1.684970000000000079e-01 7.388999999999999735e-02 1.568410000000000082e-01 9.055299999999999461e-02 3.281400000000000289e-02 2.572999999999999940e-02 1.485599999999999941e-02 -1.819280000000000064e-01 -3.905800000000000244e-02 -2.255000000000000060e-02 3.286700000000000038e-02 5.190000000000000386e-04 2.999999999999999737e-04 -3.788942000000000032e+00 3.094682000000000155e+00 1.786715999999999971e+00 1.263522000000000034e+00 6.080000000000000335e-04 4.523800000000000043e-02 3.317799999999999916e-02 -1.468599999999999940e-02 -5.282000000000000237e-03 9.145000000000000351e-03 -3.971500000000000030e-02 2.253300000000000095e-02 -3.223299999999999776e-02 -1.341099999999999931e-02 8.814999999999999919e-03 -6.739000000000000198e-03 -3.616999999999999989e-03 1.445100000000000030e-02 9.553000000000000727e-03 5.959999999999999586e-04 -3.570965999999999863e+00 1.262993999999999950e+00 3.948100000000000220e-02 -2.209200000000000053e-02 3.317799999999999916e-02 -1.191799999999999977e-02 -1.007699999999999915e-02 9.143999999999999351e-03 -3.429999999999999889e-04 -4.565999999999999920e-02 -3.223299999999999776e-02 1.048100000000000073e-02 6.052000000000000088e-03 5.477000000000000098e-03 -1.611999999999999935e-03 -9.300000000000000541e-04 -1.521400000000000009e-02 3.881099999999999828e-02 2.240800000000000083e-02 -3.232600000000000057e-02 -3.440000000000000132e-04 -1.329200000000000000e-02 5.075999999999999783e-03 2.704999999999999939e-03 1.431999999999999940e-02 9.475000000000000783e-03 -1.080799999999999990e-02 6.531000000000000347e-03 -1.287300000000000076e-02 9.280000000000000054e-04 -1.602100000000000052e-02 -6.738000000000000066e-03 1.070600000000000024e-02 -1.035699999999999989e-02 9.553000000000000727e-03 -3.092248999999999803e+00 1.785998999999999892e+00 1.262993999999999950e+00 -1.168399999999999994e-02 6.348000000000000344e-03 5.075999999999999783e-03 1.375299999999999960e-02 -4.817000000000000101e-03 9.476000000000000048e-03 2.519999999999999996e-04 -1.262500000000000080e-02 -1.287300000000000076e-02 1.504199999999999982e-02 8.685000000000000012e-03 -6.813999999999999745e-03 2.519999999999999996e-04 1.459999999999999981e-04 -5.659999999999999884e-04 1.131700000000000067e-02 6.533999999999999878e-03 -1.286499999999999970e-02 -1.476000000000000098e-03 -8.809999999999999472e-04 -1.123999999999999999e-03
