1.017049219561839202e+01 9.017052106719965991e-04 1.057293560748733202e-03 9.017052106719965991e-04 1.016943843815650794e+01 6.152812025761859351e-04 1.057293560748733202e-03 6.152812025761859351e-04 1.017003603886475815e+01
