-4.272978616699999748e+02
-4.272931210799999917e+02
-4.272684381500000086e+02
-4.273056792599999767e+02
-4.272770563999999922e+02
-4.272650243699999919e+02
-4.273137338999999884e+02
-4.272532715599999733e+02
-4.272527364200000193e+02
-4.272437070299999959e+02
