-2.484499999999999903e-02 -1.480170000000000097e-01 6.845400000000000096e-02 -1.545320000000000027e-01 -1.136459999999999970e-01 1.073230000000000017e-01 -1.307969999999999966e-01 -9.993699999999999806e-02 1.448550000000000115e-01 -9.126999999999999696e-03 1.736030000000000073e-01 -5.640499999999999681e-02 -6.356999999999999804e-03 4.528000000000000080e-02 4.252299999999999830e-02 -5.068099999999999689e-02 1.968200000000000158e-02 -2.967399999999999899e-02 -3.799999999999999906e-02 3.880299999999999722e-02 1.128900000000000042e-02 2.946756999999999849e+00 -1.755246000000000084e+00 -1.183484999999999898e+00 2.937577000000000105e+00 -1.722812000000000010e+00 -1.230191000000000034e+00 2.970038000000000178e+00 -1.703643000000000018e+00 -1.178004000000000051e+00 -2.569799999999999862e-02 -8.977699999999999569e-02 6.700100000000000500e-02 1.336099999999999961e-02 -7.317700000000000593e-02 1.759300000000000100e-02 -4.073000000000000231e-02 -9.843799999999999772e-02 4.309000000000000330e-02 3.000510999999999928e+00 1.752494999999999914e+00 -2.456532999999999856e+00 -2.833000000000000015e-03 3.428746999999999989e+00 -1.234591999999999912e+00 1.667899999999999938e-02 3.439579000000000164e+00 -1.204159999999999897e+00 -2.996194000000000024e+00 -1.715983999999999954e+00 2.433771000000000129e+00 -2.975947999999999816e+00 -1.755160999999999971e+00 2.441539000000000126e+00 -2.989869000000000110e+00 -1.712326000000000015e+00 2.442860000000000031e+00 9.463900000000000090e-02 -1.003929999999999961e-01 4.468899999999999956e-02 3.842000000000000276e-02 -1.329430000000000056e-01 -4.544800000000000229e-02 6.180100000000000177e-02 -1.139899999999999941e-01 2.899999999999999800e-03 -2.994545000000000012e+00 -1.663756999999999930e+00 -1.227141000000000037e+00 -4.473200000000000093e-02 9.081899999999999695e-02 -4.819999999999999632e-03 -1.402800000000000054e-02 5.700899999999999718e-02 3.639473999999999876e+00 -3.247599999999999792e-02 8.479000000000000425e-02 3.711500000000000216e-02 -7.248599999999999488e-02 6.178499999999999964e-02 -2.644300000000000123e-02 -3.887999999999999790e-02 7.080400000000000582e-02 -7.860000000000000233e-04 -7.967299999999999383e-02 3.430604000000000209e+00 -1.162922999999999929e+00 -4.574799999999999700e-02 -4.713400000000000228e-02 3.657999999999999793e-03 -1.112699999999999974e-02 -2.714400000000000146e-02 5.923899999999999999e-02 -2.422249999999999959e-01 1.496339999999999892e-01 9.670099999999999529e-02 -2.268199999999999938e-01 1.682649999999999979e-01 8.186599999999999433e-02 -2.435589999999999977e-01 1.487570000000000003e-01 9.430299999999999794e-02 2.859400000000000136e-02 1.994549999999999934e-01 -2.185159999999999880e-01 1.361970000000000125e-01 2.617999999999999772e-01 -4.331800000000000234e-02 -7.747099999999999820e-02 3.748340000000000005e-01 -8.565799999999999803e-02 -1.661219999999999919e-01 -2.808039999999999980e-01 1.198699999999999939e-02 -2.334999999999999923e-02 -2.616640000000000077e-01 1.092780000000000001e-01 -1.216599999999999973e-02 -1.918310000000000015e-01 2.633139999999999925e-01 -7.992599999999999705e-02 1.939009999999999900e-01 -1.511969999999999981e-01 2.691100000000000089e-02 2.556129999999999791e-01 2.340700000000000072e-02 2.834400000000000114e-02 9.969999999999999696e-03 -2.273899999999999880e-02 -1.141319999999999973e-01 7.934900000000000286e-02 -7.929700000000000637e-02 -1.571300000000000127e-02 1.358689999999999898e-01 8.149800000000000100e-02 2.815369999999999817e-01 -2.593630000000000102e-01 -1.366880000000000039e-01 3.284980000000000122e-01 -2.325319999999999887e-01 -6.078700000000000075e-02 2.583779999999999966e-01 -2.637880000000000225e-01 -6.553799999999999903e-02 3.278860000000000108e-01 1.458260000000000112e-01 -2.541820000000000190e-01 2.049400000000000110e-01 -1.543600000000000007e-02 -1.367949999999999999e-01 2.178849999999999953e-01 -7.663999999999999806e-03 -1.151469999999999994e-01 -8.115700000000000691e-02 -1.581660000000000010e-01 -1.452130000000000087e-01 2.086000000000000007e-02 -3.173000000000000126e-02 -6.269999999999999532e-04 1.221349999999999936e-01 -4.076899999999999968e-02 1.865819999999999979e-01
-5.368499999999999661e-02 1.276130000000000042e-01 8.993299999999999905e-02 -1.362180000000000057e-01 7.997999999999999554e-02 -4.470400000000000068e-02 -1.371340000000000059e-01 -1.696299999999999891e-02 8.976199999999999457e-02 5.417099999999999693e-02 -3.188400000000000262e-02 -2.139100000000000029e-02 3.460200000000000081e-02 -1.886900000000000036e-02 1.022010000000000002e-01 -6.467999999999999791e-03 -3.413599999999999968e-02 1.576400000000000023e-02 -5.952099999999999752e-02 -7.320699999999999430e-02 -5.147600000000000092e-02 2.905368999999999868e+00 -1.696798000000000028e+00 -1.199054999999999982e+00 2.920325000000000060e+00 -1.688063000000000091e+00 -1.173397999999999941e+00 3.348500000000000087e-02 8.951800000000000035e-02 -5.200799999999999867e-02 2.923013999999999779e+00 -1.666776999999999953e+00 -1.199119999999999964e+00 2.618799999999999947e-02 2.325400000000000036e-02 1.618700000000000000e-02 -5.869000000000000085e-03 4.741999999999999688e-03 -3.717800000000000271e-02 4.569899999999999657e-02 3.383366000000000096e+00 -1.174099000000000004e+00 3.690000000000000138e-03 3.359018999999999977e+00 -1.241638000000000019e+00 1.094870000000000010e-01 -6.337199999999999778e-02 -4.448799999999999977e-02 -3.075139000000000067e+00 1.774037000000000086e+00 1.255473000000000061e+00 -2.907300999999999913e+00 -1.684805000000000108e+00 -1.240992000000000095e+00 4.448300000000000171e-02 1.940899999999999917e-02 3.580125999999999920e+00 -2.906702000000000119e+00 -1.730919000000000096e+00 -1.174614999999999965e+00 3.036745999999999945e+00 -1.754639000000000060e+00 -1.241042999999999896e+00 5.498000000000000283e-03 -4.954499999999999876e-02 3.580903000000000169e+00 -9.522700000000000609e-02 -4.331299999999999734e-02 7.505100000000000660e-02 -2.801899999999999877e-02 1.602500000000000105e-02 4.662899999999999684e-02 -5.574500000000000288e-02 1.200000000000000030e-05 3.379999999999999758e-04 -1.021700000000000039e-02 1.054910000000000014e-01 7.447800000000000253e-02 -4.864399999999999974e-02 3.509373000000000076e+00 -1.212738000000000094e+00 -9.627199999999999647e-02 5.580999999999999850e-02 -6.600999999999999923e-02 -4.617799999999999683e-02 2.814399999999999888e-02 3.714179999999999815e+00 -3.063575999999999855e+00 -1.713953999999999978e+00 -1.212328000000000072e+00 -2.682599999999999915e-02 5.022700000000000081e-02 2.970000000000000092e-04 -2.909539999999999904e-01 -1.669219999999999871e-01 2.385110000000000008e-01 -3.188969999999999860e-01 -2.656250000000000000e-01 -1.865390000000000104e-01 6.988400000000000167e-02 -4.117099999999999926e-02 4.491850000000000009e-01 -2.923350000000000115e-01 1.689309999999999978e-01 -2.384320000000000050e-01 7.120899999999999452e-02 4.113020000000000009e-01 -1.869780000000000053e-01 -3.789999999999999966e-04 3.374159999999999937e-01 2.382090000000000041e-01 1.135469999999999952e-01 -6.494700000000000473e-02 -4.669600000000000140e-02 -2.107539999999999969e-01 -5.522900000000000031e-02 -2.442920000000000091e-01 1.103610000000000008e-01 1.301809999999999912e-01 2.809450000000000003e-01 -2.132789999999999964e-01 -2.514419999999999988e-01 2.761200000000000113e-02 -5.799100000000000088e-02 -1.617609999999999881e-01 2.810590000000000033e-01 1.092930000000000013e-01 3.080410000000000093e-01 2.761900000000000119e-02 -5.696500000000000175e-02 2.120279999999999943e-01 -2.447040000000000048e-01 -6.401199999999999946e-02 3.537599999999999772e-02 2.485000000000000056e-02 1.094839999999999980e-01 -1.507209999999999939e-01 -1.073780000000000012e-01 3.956100000000000172e-01 -7.870399999999999618e-02 -2.124020000000000075e-01 1.857640000000000124e-01 -1.066190000000000054e-01 1.713100000000000039e-02 3.928349999999999898e-01 -2.289329999999999976e-01 -4.721000000000000370e-03 2.662140000000000062e-01 -3.020240000000000147e-01 -2.123150000000000037e-01 1.986500000000000071e-02 -7.295000000000000095e-02 1.179099999999999940e-02 1.846059999999999923e-01 -1.962500000000000008e-02 -1.077049999999999952e-01 2.136800000000000158e-02 -1.216000000000000067e-02 -7.122100000000000652e-02 7.151299999999999324e-02 1.678100000000000078e-02 1.142499999999999939e-02
-6.996099999999999541e-02 1.503339999999999954e-01 7.281200000000000172e-02 -1.369340000000000002e-01 1.116769999999999985e-01 -3.642900000000000305e-02 -1.373489999999999989e-01 -8.552300000000000180e-02 1.141329999999999983e-01 3.133699999999999680e-02 -4.141899999999999749e-02 -5.473999999999999699e-03 3.690999999999999837e-02 -7.108899999999999941e-02 3.589599999999999735e-02 4.687600000000000100e-02 -6.829000000000000348e-02 -4.845999999999999613e-03 1.087399999999999999e-02 -8.612499999999999323e-02 -6.630999999999999742e-03 2.967427999999999955e+00 -1.708860000000000046e+00 -1.219905999999999935e+00 2.971852999999999856e+00 -1.706164999999999932e+00 -1.211421999999999999e+00 1.270699999999999955e-02 3.448856999999999839e+00 -1.226936000000000027e+00 3.002492999999999856e+00 -1.672388999999999903e+00 -1.245780000000000109e+00 2.798199999999999993e-02 1.675000000000000057e-03 3.602488999999999830e+00 -2.927705000000000002e+00 -1.704790000000000028e+00 -1.224169000000000063e+00 3.184300000000000325e-02 3.423747999999999791e+00 -1.198971999999999927e+00 5.425000000000000135e-03 3.408383999999999858e+00 -1.241065000000000085e+00 4.197700000000000042e-02 -7.539200000000000068e-02 1.092000000000000089e-03 -3.076350999999999836e+00 1.786996999999999947e+00 1.251641999999999921e+00 -2.957793999999999812e+00 -1.705132000000000092e+00 -1.275476000000000054e+00 5.326399999999999885e-02 3.329200000000000215e-02 3.642440999999999818e+00 -2.986009999999999831e+00 -1.737414999999999932e+00 -1.224377999999999966e+00 3.632699999999999818e-02 -8.495000000000000814e-03 -2.086999999999999966e-02 8.349000000000000518e-03 -8.588000000000000148e-03 3.665303999999999895e+00 -9.400799999999999434e-02 -9.298999999999999974e-03 6.229400000000000215e-02 -8.756899999999999407e-02 -1.168300000000000068e-02 2.532399999999999929e-02 -6.013500000000000095e-02 4.150000000000000043e-03 6.912799999999999501e-02 -8.678600000000000203e-02 9.597100000000000075e-02 2.526300000000000073e-02 -3.790799999999999725e-02 1.031910000000000049e-01 -1.486799999999999927e-02 -9.160500000000000587e-02 9.317200000000000482e-02 1.740399999999999933e-02 -3.677600000000000313e-02 3.624600000000000044e-02 4.877100000000000185e-02 -6.856900000000000495e-02 1.786499999999999894e-02 -2.070999999999999924e-03 2.906547000000000214e+00 -1.697044999999999915e+00 -1.178199999999999914e+00 -2.021560000000000024e-01 8.956000000000000419e-03 1.219640000000000030e-01 -3.133969999999999811e-01 -1.588600000000000012e-01 1.354889999999999983e-01 -2.211299999999999932e-01 -1.056119999999999975e-01 2.869849999999999901e-01 -2.554170000000000051e-01 2.016459999999999919e-01 -2.255369999999999875e-01 -1.361360000000000070e-01 3.965139999999999776e-01 -5.477900000000000130e-02 -1.902999999999999961e-03 3.479490000000000083e-01 1.883670000000000067e-01 1.236609999999999931e-01 -5.351800000000000307e-02 -5.693399999999999850e-02 -1.136749999999999983e-01 -2.202210000000000001e-01 -1.204070000000000001e-01 1.053619999999999973e-01 -9.373499999999999888e-02 2.381290000000000073e-01 8.767900000000000693e-02 -3.026389999999999914e-01 -1.193209999999999965e-01 4.153599999999999653e-02 -2.303099999999999939e-02 -1.688800000000000023e-02 2.271610000000000018e-01 -2.220469999999999944e-01 1.084679999999999950e-01 1.096769999999999967e-01 1.714569999999999983e-01 -1.799699999999999911e-01 1.521679999999999977e-01 1.960020000000000095e-01 -1.114710000000000006e-01 1.740130000000000010e-01 2.582500000000000073e-02 -1.175270000000000065e-01 1.176699999999999968e-01 6.816999999999999449e-02 -7.902700000000000002e-02 3.009089999999999820e-01 -2.484870000000000134e-01 -9.439000000000000168e-02 1.035189999999999999e-01 5.999100000000000266e-02 -1.021709999999999979e-01 9.380199999999999649e-02 -2.930090000000000194e-01 -1.614710000000000034e-01 2.632380000000000275e-01 -1.952149999999999996e-01 1.141739999999999977e-01 1.517850000000000033e-01 1.345000000000000015e-02 -9.930999999999999550e-02 2.294399999999999912e-02 1.094119999999999954e-01 1.801180000000000003e-01 -1.680429999999999979e-01 -8.570000000000000144e-04 -1.309899999999999953e-01
-5.549400000000000166e-02 2.188800000000000121e-02 1.713079999999999881e-01 -1.397110000000000019e-01 8.204100000000000281e-02 5.803200000000000025e-02 -1.729420000000000124e-01 -3.568000000000000338e-02 -3.608900000000000302e-02 -4.646999999999999742e-02 1.738490000000000035e-01 -2.178199999999999928e-02 9.945000000000000714e-03 -4.638999999999999894e-03 -3.278000000000000098e-03 3.710499999999999909e-02 -7.664999999999999938e-03 3.629000000000000281e-02 2.981710000000000083e+00 -1.719454999999999956e+00 -1.219090999999999925e+00 2.983001999999999931e+00 -1.719767999999999963e+00 -1.214687999999999990e+00 2.954105999999999899e+00 -1.707583999999999991e+00 -1.207446999999999937e+00 2.504899999999999835e-02 2.539299999999999891e-02 -3.837200000000000333e-02 -8.191999999999999629e-03 -4.696100000000000274e-02 -1.930199999999999971e-02 2.979772000000000087e+00 -1.723489999999999966e+00 -1.216136000000000106e+00 3.954200000000000076e-02 -2.148299999999999862e-02 -1.518000000000000078e-02 6.698300000000000087e-02 3.392914000000000208e+00 -1.223430000000000017e+00 6.100499999999999673e-02 3.512071000000000165e+00 2.498361000000000054e+00 -2.904328000000000021e+00 -1.738663000000000070e+00 -1.245811999999999919e+00 -3.024397000000000002e+00 -1.818745000000000056e+00 2.478801999999999950e+00 -3.011305999999999816e+00 1.752226999999999979e+00 -2.540553000000000061e+00 1.071710000000000024e-01 -6.582000000000000177e-03 3.616061000000000192e+00 5.346700000000000064e-02 -4.641900000000000193e-02 3.606269999999999865e+00 -2.897515999999999980e+00 -1.798078000000000065e+00 -1.211276000000000019e+00 5.934500000000000192e-02 3.379699000000000009e+00 -1.291233999999999993e+00 -1.231379999999999975e-01 5.644899999999999918e-02 3.551900000000000196e-02 -1.105590000000000045e-01 5.954199999999999771e-02 6.355800000000000338e-02 -8.288199999999999734e-02 7.074400000000000133e-02 1.561899999999999920e-02 -1.069930000000000048e-01 8.183200000000000196e-02 4.078199999999999881e-02 -7.367100000000000037e-02 8.175599999999999534e-02 7.214500000000000079e-02 -1.073759999999999992e-01 7.573499999999999677e-02 -3.738000000000000003e-03 -7.345699999999999452e-02 5.465099999999999819e-02 6.149099999999999705e-02 -1.191080000000000055e-01 1.493500000000000036e-02 5.351399999999999907e-02 -1.016520000000000062e-01 2.746699999999999836e-02 3.099299999999999972e-02 -4.674869999999999859e-01 6.414400000000000657e-02 1.760730000000000073e-01 -2.887910000000000199e-01 2.906320000000000014e-01 2.947119999999999740e-01 -3.425259999999999971e-01 1.969849999999999934e-01 1.392950000000000021e-01 -2.950269999999999837e-01 1.705049999999999899e-01 1.205109999999999931e-01 -3.953999999999999737e-01 3.135040000000000049e-01 1.379999999999999933e-03 5.518200000000000188e-02 -2.092630000000000046e-01 1.166589999999999988e-01 -5.977999999999999807e-03 -6.643100000000000394e-02 -2.357769999999999866e-01 1.050650000000000056e-01 -9.764699999999999769e-02 1.579649999999999943e-01 8.731600000000000472e-02 -5.912699999999999900e-02 1.514159999999999950e-01 -4.889399999999999996e-02 -1.504119999999999902e-01 -1.447219999999999895e-01 1.366620000000000057e-01 1.345810000000000062e-01 -9.347800000000000553e-02 9.302299999999999458e-02 1.266249999999999876e-01 -9.614499999999999436e-02 2.093399999999999983e-01 1.292560000000000098e-01 1.558400000000000063e-02 -6.426900000000000668e-02 -1.395119999999999971e-01 -1.062140000000000029e-01 9.489599999999999425e-02 -1.935520000000000018e-01 -1.407370000000000010e-01 2.970130000000000270e-01 -2.535140000000000171e-01 -6.427700000000000080e-02 3.683150000000000035e-01 -1.035849999999999965e-01 -1.004369999999999985e-01 2.312800000000000133e-01 6.418000000000000094e-03 -1.266730000000000078e-01 2.744349999999999845e-01 -1.834330000000000127e-01 -2.175239999999999951e-01 2.158589999999999953e-01 -1.442900000000000016e-01 4.866800000000000292e-02 2.143970000000000042e-01 -1.281760000000000121e-01 6.060200000000000309e-02 2.183460000000000123e-01 1.666400000000000173e-02 -1.355659999999999921e-01 1.082380000000000009e-01 -1.883529999999999927e-01 -1.526500000000000079e-01
2.196400000000000088e-02 1.044400000000000016e-02 1.242960000000000037e-01 -1.469669999999999865e-01 6.038500000000000117e-02 -1.005289999999999934e-01 -1.769809999999999994e-01 -2.107200000000000045e-02 -4.209299999999999847e-02 2.415000000000000133e-02 -4.794199999999999851e-02 5.829299999999999760e-02 -1.989799999999999902e-02 -4.394499999999999795e-02 2.572599999999999887e-02 3.416999999999999899e-03 -4.169500000000000289e-02 7.193700000000000094e-02 -3.034799999999999998e-02 -4.732299999999999701e-02 -2.405200000000000046e-02 2.969412000000000162e+00 -1.679529000000000050e+00 -1.225009999999999932e+00 2.905159999999999965e+00 -1.695451000000000041e+00 -1.201424999999999965e+00 -7.466000000000000414e-03 6.232700000000000046e-02 -4.286500000000000032e-02 -2.882799999999999946e-02 -1.226600000000000086e-02 3.299999999999999982e-04 2.939842000000000066e+00 -1.685392999999999919e+00 -1.205214999999999925e+00 6.832999999999999664e-03 1.407000000000000048e-03 -2.053900000000000170e-02 4.546200000000000241e-02 3.363820000000000032e+00 -1.207602999999999982e+00 3.618400000000000089e-02 3.381876999999999800e+00 -1.178409000000000040e+00 7.192900000000000682e-02 -7.926900000000000612e-02 -3.088099999999999873e-02 -3.034679999999999822e+00 -1.749455999999999900e+00 2.458292999999999839e+00 -3.008608000000000171e+00 1.760841000000000101e+00 -2.548061000000000131e+00 7.328199999999999992e-02 2.793899999999999856e-02 3.603763999999999967e+00 5.081399999999999806e-02 -2.188700000000000020e-02 3.607679000000000080e+00 -2.903932999999999875e+00 -1.778097000000000039e+00 -1.213294000000000095e+00 3.005536000000000207e+00 -1.746005000000000029e+00 -1.278256999999999977e+00 -8.021399999999999364e-02 -1.025000000000000043e-02 3.743300000000000100e-02 -5.396900000000000308e-02 -2.520000000000000018e-02 6.509299999999999808e-02 -3.830599999999999977e-02 -6.610000000000000207e-04 2.257199999999999832e-02 -5.455900000000000333e-02 8.231600000000000028e-02 1.631999999999999987e-03 -1.644999999999999934e-02 9.372500000000000275e-02 4.006500000000000339e-02 -5.932799999999999879e-02 3.479156999999999833e+00 -1.252863999999999978e+00 -3.647600000000000148e-02 4.338600000000000095e-02 4.150700000000000223e-02 -7.780600000000000016e-02 1.303099999999999918e-02 3.680601999999999929e+00 -3.032410000000000050e+00 -1.689977000000000062e+00 -1.219732000000000038e+00 -3.057460000000000178e-01 5.588599999999999818e-02 3.073609999999999953e-01 -9.255599999999999938e-02 -6.515100000000000058e-02 2.829650000000000221e-01 -1.399920000000000053e-01 -1.513259999999999883e-01 1.567780000000000007e-01 -9.805999999999999439e-02 2.705879999999999952e-01 7.046299999999999786e-02 -2.745349999999999735e-01 3.653750000000000053e-01 -1.911770000000000136e-01 1.594319999999999904e-01 2.629230000000000178e-01 -6.277699999999999947e-02 3.300000000000000253e-05 6.052000000000000088e-03 1.344170000000000087e-01 1.265400000000000032e-02 -6.322999999999999454e-02 -2.406010000000000093e-01 -3.268000000000000071e-03 7.729500000000000259e-02 9.477499999999999813e-02 -9.997200000000000530e-02 -1.785549999999999915e-01 2.067549999999999943e-01 -1.523849999999999927e-01 -2.177320000000000089e-01 3.853000000000000175e-02 4.865699999999999886e-02 2.001090000000000091e-01 -9.126900000000000290e-02 9.901400000000000479e-02 3.092929999999999846e-01 1.379400000000000071e-02 -1.709209999999999896e-01 5.188000000000000250e-02 -1.071050000000000058e-01 8.217499999999999805e-02 -1.638479999999999936e-01 -1.347800000000000109e-01 2.781839999999999868e-01 -2.321100000000000108e-01 -6.019300000000000345e-02 3.153520000000000212e-01 6.318600000000000605e-02 -9.886200000000000543e-02 2.148569999999999924e-01 -5.113100000000000284e-02 -9.607499999999999374e-02 3.790040000000000076e-01 -2.363099999999999923e-01 -2.271300000000000055e-02 1.245350000000000068e-01 -3.159810000000000119e-01 -7.850400000000000433e-02 5.394700000000000190e-02 7.605999999999999914e-03 3.341700000000000226e-02 2.080269999999999897e-01 6.355999999999999671e-03 -1.240980000000000000e-01 1.481000000000000025e-02 -6.412000000000000165e-03 -7.949499999999999622e-02
-5.490000000000000088e-03 -3.823499999999999815e-02 1.254170000000000007e-01 -1.154089999999999977e-01 4.404999999999999888e-02 -6.773400000000000254e-02 -1.785420000000000063e-01 -3.376500000000000334e-02 -3.877300000000000191e-02 2.456900000000000056e-02 7.008499999999999452e-02 2.143499999999999919e-02 -3.007200000000000151e-02 -3.442999999999999880e-03 5.206999999999999823e-03 -3.236599999999999894e-02 7.269000000000000287e-03 4.270600000000000090e-02 6.506999999999999763e-03 2.665299999999999961e-02 -2.171400000000000066e-02 2.937825999999999826e+00 -1.734121999999999941e+00 -1.225349000000000022e+00 2.964805999999999830e+00 -1.709927999999999892e+00 -1.171265999999999918e+00 -1.467700000000000081e-02 1.937900000000000039e-02 -5.441200000000000203e-02 5.114999999999999755e-03 5.609999999999999752e-04 1.690799999999999942e-02 2.923745999999999956e+00 -1.715371999999999897e+00 -1.202248999999999901e+00 -2.856300000000000158e-02 -2.458899999999999975e-02 -1.082699999999999982e-02 1.714999999999999858e-02 3.386233999999999966e+00 -1.208449000000000106e+00 6.274000000000000410e-02 3.450117999999999796e+00 -1.188015000000000043e+00 2.981158000000000197e+00 -1.757274999999999920e+00 -1.263330000000000064e+00 -2.999502000000000113e+00 -1.770515999999999979e+00 2.468935999999999797e+00 -3.010972999999999900e+00 1.740280999999999967e+00 -2.542838000000000154e+00 6.598900000000000599e-02 1.321400000000000005e-02 3.602050000000000196e+00 3.755700000000000011e-02 -5.132300000000000056e-02 3.607171000000000127e+00 -2.944659000000000137e+00 -1.820230000000000015e+00 -1.223554000000000030e+00 9.354800000000000615e-02 -5.566399999999999820e-02 -1.223899999999999988e-02 -3.715500000000000053e-02 6.248800000000000188e-02 3.163799999999999946e-02 -6.511899999999999633e-02 1.174799999999999976e-02 3.674272999999999900e+00 -3.007886000000000060e+00 -1.686989999999999990e+00 -1.229551000000000061e+00 -7.958600000000000396e-02 5.001699999999999896e-02 1.939099999999999852e-02 -5.335100000000000259e-02 3.524700000000000055e-02 4.277700000000000252e-02 -2.763600000000000084e-02 7.247399999999999676e-02 -5.519999999999999733e-04 -5.380200000000000260e-02 7.289999999999999605e-03 2.332100000000000145e-02 -9.745000000000000190e-03 1.331899999999999924e-02 5.650000000000000161e-02 -8.244899999999999451e-02 3.433123000000000147e+00 -1.225467000000000084e+00 -1.045770000000000033e-01 4.565700000000000314e-02 1.761359999999999870e-01 -2.763019999999999921e-01 6.774800000000000266e-02 2.287559999999999871e-01 -2.369580000000000020e-01 2.339400000000000160e-02 2.775440000000000129e-01 1.103719999999999979e-01 1.740349999999999953e-01 1.174599999999999950e-01 -2.806569999999999898e-01 3.805700000000000194e-01 -2.067980000000000096e-01 6.675499999999999490e-02 9.167899999999999661e-02 -7.186499999999999833e-02 -3.655900000000000122e-02 -2.009680000000000077e-01 1.090420000000000000e-01 2.638999999999999853e-03 5.114199999999999996e-02 -3.779400000000000120e-02 -1.008710000000000023e-01 -9.534099999999999520e-02 9.516199999999999659e-02 9.672699999999999354e-02 1.638499999999999956e-01 2.055520000000000125e-01 -4.948199999999999821e-02 -1.569530000000000092e-01 -1.552989999999999926e-01 -7.841700000000000059e-02 1.336420000000000108e-01 -8.391300000000000148e-02 -1.206440000000000012e-01 6.846099999999999408e-02 -6.384099999999999497e-02 -9.502999999999999295e-03 1.371590000000000031e-01 2.276800000000000004e-02 1.391479999999999939e-01 -1.451880000000000115e-01 -1.029230000000000006e-01 2.654030000000000000e-01 -2.583599999999999786e-01 -5.990299999999999792e-02 2.110809999999999909e-01 -1.110529999999999989e-01 -2.834199999999999914e-02 2.041530000000000011e-01 7.207999999999999997e-03 -1.276980000000000059e-01 2.739820000000000033e-01 -1.584899999999999920e-01 -2.112789999999999946e-01 3.243099999999999872e-01 3.238599999999999812e-02 -7.905500000000000027e-02 1.493700000000000062e-02 -6.317300000000000693e-02 3.383599999999999802e-02 3.234310000000000240e-01 -4.501499999999999946e-02 6.895900000000000640e-02 -8.269700000000000661e-02 -1.844899999999999873e-01 -1.579149999999999998e-01
-9.832000000000000461e-03 6.836000000000000063e-03 2.316100000000000103e-01 -1.950860000000000094e-01 -1.001350000000000018e-01 -7.080699999999999494e-02 -9.832999999999999727e-03 2.206430000000000058e-01 -7.075800000000000145e-02 -1.948999999999999995e-03 3.359999999999999814e-04 2.369999999999999874e-04 -2.904005999999999865e+00 -1.669699999999999962e+00 -1.180654000000000092e+00 2.992951000000000139e+00 -1.676735000000000086e+00 -1.240326000000000040e+00 -4.747000000000000351e-03 4.180999999999999821e-03 3.552814999999999834e+00 2.992954000000000114e+00 -1.728304999999999980e+00 -1.167397999999999936e+00 2.947350999999999832e+00 -1.754485999999999990e+00 -1.240610999999999908e+00 7.776700000000000279e-02 6.530000000000000214e-03 -4.979299999999999699e-02 -4.739000000000000157e-03 3.351018999999999970e+00 -1.180328999999999962e+00 7.776299999999999879e-02 -4.476700000000000124e-02 2.275299999999999892e-02 3.420499999999999929e-02 -6.991400000000000392e-02 -4.944099999999999884e-02 -3.596999999999999937e-03 3.540935000000000166e+00 2.503819000000000017e+00 -3.068594000000000044e+00 1.771225999999999967e+00 -2.501339000000000201e+00 8.218200000000000505e-02 5.378600000000000048e-02 -6.919300000000000450e-02 -3.068592000000000208e+00 -1.767873000000000028e+00 2.503705000000000069e+00 -2.951175999999999799e+00 -1.762334000000000067e+00 -1.246156999999999959e+00 4.915699999999999931e-02 -3.009200000000000069e-02 3.654241999999999990e+00 8.217900000000000205e-02 -4.730899999999999689e-02 7.377200000000000424e-02 4.915900000000000131e-02 3.435223000000000138e+00 -1.246450999999999976e+00 -5.394000000000000357e-03 -9.786499999999999366e-02 -6.919599999999999362e-02 2.866105000000000125e+00 -1.653294999999999959e+00 -1.169059999999999988e+00 -3.397300000000000320e-02 1.098610000000000003e-01 1.284000000000000072e-02 -5.821199999999999986e-02 9.585799999999999876e-02 -2.776899999999999855e-02 -3.397800000000000126e-02 4.872400000000000342e-02 9.929699999999999638e-02 -4.349700000000000094e-02 2.361200000000000104e-02 1.669700000000000004e-02 -1.120229999999999976e-01 3.674999999999999881e-03 -2.813500000000000029e-02 -5.821300000000000086e-02 5.773999999999999619e-03 9.963299999999999934e-02 -1.120219999999999966e-01 -2.530500000000000110e-02 1.284399999999999951e-02 -2.747499999999999942e-02 1.736899999999999902e-02 1.228100000000000025e-02 -3.662230000000000207e-01 -1.738049999999999873e-01 2.870449999999999946e-01 -9.716800000000000437e-02 2.816830000000000167e-01 -4.021399999999999975e-02 -3.662279999999999980e-01 2.126899999999999902e-01 -2.595470000000000277e-01 -3.225700000000000095e-02 4.054240000000000066e-01 2.866799999999999904e-01 -2.927649999999999975e-01 -5.691100000000000325e-02 -4.024400000000000199e-02 -9.716800000000000437e-02 5.597699999999999898e-02 2.789820000000000078e-01 1.771590000000000109e-01 -2.293330000000000091e-01 -2.753799999999999998e-02 -9.848600000000000410e-02 -2.461139999999999994e-01 -1.740259999999999863e-01 1.642260000000000109e-01 -9.443000000000000005e-02 2.558050000000000046e-01 -9.431999999999999412e-03 3.706000000000000093e-03 -1.970600000000000129e-02 1.642240000000000089e-01 2.096959999999999935e-01 -1.743000000000000105e-01 8.906000000000000721e-03 1.429700000000000068e-02 1.011800000000000026e-02 2.863490000000000202e-01 -3.939600000000000046e-02 -2.785599999999999882e-02 1.771649999999999892e-01 -1.024020000000000069e-01 -2.070440000000000058e-01 -9.426000000000000351e-03 -1.734399999999999831e-02 1.006100000000000050e-02 -7.323100000000000442e-02 -1.655210000000000015e-01 -2.327569999999999917e-01 3.498879999999999768e-01 -2.000869999999999871e-01 -1.414809999999999957e-01 2.010450000000000015e-01 -7.120999999999999726e-03 2.150930000000000064e-01 1.058250000000000024e-01 1.454469999999999930e-01 -2.329809999999999937e-01 2.010520000000000085e-01 2.004160000000000108e-01 -7.841900000000000259e-02 2.912800000000000111e-02 -1.854599999999999999e-02 -1.311999999999999972e-02 -7.323499999999999455e-02 -2.746170000000000000e-01 -7.846400000000000596e-02 1.058199999999999974e-01 -1.711799999999999988e-01 2.147860000000000047e-01