2.567464779931690941e+02 2.800236691494721944e-02 -3.328989554835050102e-01 2.800236691494721944e-02 2.566657311755781166e+02 -1.745453760940408605e-01 -3.328989554835050102e-01 -1.745453760940408605e-01 2.564811220621132293e+02
2.568100075453845079e+02 -8.814433641733669667e-02 -6.182868866117592621e-02 -8.814433641733669667e-02 2.567020080138380536e+02 3.865663279633830413e-02 -6.182868866117592621e-02 3.865663279633830413e-02 2.566772411773849285e+02
2.567885964667545977e+02 -5.621336366295188319e-02 -1.225399700808916525e-01 -5.621336366295188319e-02 2.566391184955172662e+02 5.208673628705298361e-03 -1.225399700808916525e-01 5.208673628705298361e-03 2.566267032524009437e+02
2.568095230998399643e+02 -1.169493977747252805e-01 -8.303820965572743240e-02 -1.169493977747252805e-01 2.566676724938552070e+02 5.084556558530446690e-02 -8.303820965572743240e-02 5.084556558530446690e-02 2.566325201350344400e+02
2.567606577496192699e+02 -1.015426150182629633e-01 3.894659290329949286e-02 -1.015426150182629633e-01 2.567446639744511572e+02 1.079924593487167732e-02 3.894659290329949286e-02 1.079924593487167732e-02 2.567206255743642487e+02
2.568119453275627393e+02 4.289287923706399698e-03 -1.028403633018575430e-01 4.289287923706399698e-03 2.566559149651278062e+02 -6.259602211496347046e-02 -1.028403633018575430e-01 -6.259602211496347046e-02 2.566933092106292520e+02
2.567127436099933107e+02 -6.232374250232917273e-02 -4.406332796150489589e-02 -6.232374250232917273e-02 2.566362047500522294e+02 2.733050813052494490e-02 -4.406332796150489589e-02 2.733050813052494490e-02 2.566168693614562812e+02
2.567274290285812981e+02 -5.577488740364471703e-02 8.824334718556735291e-02 -5.577488740364471703e-02 2.567918355333153499e+02 5.095872074899663456e-02 8.824334718556735291e-02 5.095872074899663456e-02 2.567696960183191663e+02
2.567826027791778074e+02 6.657766943738177567e-02 -1.056586340975657207e-01 6.657766943738177567e-02 2.567491053146260356e+02 -7.631962181150471480e-02 -1.056586340975657207e-01 -7.631962181150471480e-02 2.567388612362130402e+02
2.567378958812228120e+02 1.336645371113783171e-03 8.840247163450946704e-05 1.336645371113783171e-03 2.568529605383022840e+02 8.149293445155621207e-02 8.840247163450946704e-05 8.149293445155621207e-02 2.567968603298029961e+02
