-4.222008107500000165e+02
-4.221815543499999990e+02
-4.220942969600000083e+02
-4.221396511699999792e+02
-4.221252349200000253e+02
-4.220850156100000277e+02
-4.220986799699999779e+02
-4.221370792999999821e+02
-4.221064710300000229e+02
-4.220848723700000278e+02
