-2.619609999999999994e-01 2.329799999999999927e-02 1.864409999999999956e-01 -3.860299999999999843e-01 1.371640000000000081e-01 1.963300000000000115e-02 -1.716479999999999950e-01 4.248199999999999893e-02 2.247570000000000123e-01 -2.870539999999999758e-01 1.371519999999999961e-01 1.924970000000000014e-01 -3.259989999999999832e-01 1.175490000000000007e-01 3.235600000000000281e-02 -1.639200000000000101e-01 2.518639999999999768e-01 3.414099999999999774e-02 2.795670000000000099e-01 -1.496159999999999990e-01 2.283299999999999913e-02 6.265800000000000536e-02 1.040259999999999935e-01 -5.769500000000000323e-02 3.028906000000000098e+00 -1.676503000000000076e+00 -1.249074000000000018e+00 3.239800000000000318e-02 3.485451999999999995e+00 2.458774000000000015e+00 -2.930079999999999796e+00 -1.702774000000000010e+00 -1.219389000000000056e+00 3.003282000000000007e+00 -1.811342999999999925e+00 2.440685000000000215e+00 1.517199999999999972e-02 -3.475210000000000132e+00 -2.451744999999999841e+00 3.040944999999999787e+00 -1.698482999999999965e+00 -1.214258000000000060e+00 2.992528000000000077e+00 -1.748992000000000102e+00 -1.228488999999999942e+00 3.039813000000000098e+00 -1.744140000000000024e+00 -1.170412999999999926e+00 2.429699999999999915e-02 3.374804000000000137e+00 -1.271187999999999985e+00 -3.019568000000000030e+00 1.737544999999999895e+00 -2.478657000000000110e+00 8.725900000000000323e-02 3.440319999999999823e+00 -1.281311000000000089e+00 2.242000000000000069e-03 3.521520999999999901e+00 2.471640999999999977e+00 -2.976719000000000115e+00 1.753171000000000035e+00 1.237251000000000101e+00 -3.066870000000000207e+00 1.797244000000000064e+00 1.243705999999999978e+00 -3.084001000000000214e+00 -1.725000000000000089e+00 2.469015999999999877e+00 -3.031522999999999968e+00 1.720393999999999979e+00 1.263325999999999949e+00 -2.978794000000000164e+00 -1.824643000000000015e+00 -1.241670999999999969e+00 6.546200000000000629e-02 -6.427399999999999780e-02 3.669668000000000152e+00 -1.259520000000000084e-01 9.877400000000000069e-02 8.321499999999999730e-02 -1.173899999999999944e-01 1.018099999999999977e-01 5.570499999999999757e-02 2.845089000000000201e+00 -1.635240000000000027e+00 -1.166233000000000075e+00 -1.186519999999999936e-01 1.289980000000000016e-01 8.354300000000000614e-02 2.891112999999999822e+00 -1.613607000000000014e+00 -1.220884999999999998e+00 -1.387889999999999957e-01 1.394839999999999969e-01 2.684299999999999881e-02 -1.654879999999999962e-01 1.314799999999999996e-02 8.318000000000000393e-02 -9.820399999999999963e-02 1.974499999999999866e-02 7.287699999999999734e-02 -1.284029999999999894e-01 4.960699999999999832e-02 5.761499999999999955e-02 -3.587080000000000268e-01 1.623149999999999871e-01 2.194579999999999864e-01 -3.182740000000000014e-01 3.513040000000000052e-01 -3.249300000000000105e-02 -3.249589999999999979e-01 2.895389999999999908e-01 1.894069999999999920e-01 1.128149999999999986e-01 -1.207410000000000011e-01 -8.677700000000000691e-02 2.617380000000000262e-01 -2.715110000000000023e-01 -1.531260000000000121e-01 3.429579999999999851e-01 -3.694089999999999874e-01 4.466400000000000231e-02 1.764020000000000032e-01 -5.622400000000000314e-02 -7.142500000000000238e-02 1.305749999999999966e-01 -2.042349999999999999e-01 -2.792529999999999735e-01 1.391539999999999999e-01 -1.064500000000000030e-01 2.051169999999999938e-01 1.653620000000000090e-01 -9.043600000000000250e-02 -2.379900000000000071e-01 1.300659999999999872e-01 1.816439999999999999e-01 -1.536790000000000100e-01 3.296910000000000118e-01 -1.993199999999999833e-02 -2.570400000000000115e-02 2.794940000000000202e-01 -2.923439999999999928e-01 5.698899999999999799e-02 -2.137299999999999964e-02 -3.783839999999999981e-01 -1.672500000000000098e-01 3.218710000000000182e-01 1.445410000000000028e-01 4.467200000000000337e-02 2.411240000000000050e-01 -2.695549999999999891e-01 -3.116979999999999751e-01 2.445539999999999936e-01 4.199200000000000155e-02 -2.087309999999999999e-01 1.349130000000000051e-01 -2.878330000000000055e-01 -1.763309999999999877e-01 1.789139999999999897e-01 -3.000500000000000042e-02 -3.454399999999999832e-02
-1.963350000000000095e-01 7.562599999999999878e-02 3.617750000000000132e-01 -4.144079999999999986e-01 -5.027000000000000218e-02 5.690999999999999878e-03 -1.681860000000000022e-01 4.222100000000000158e-02 8.853099999999999858e-02 -2.085239999999999871e-01 -7.570599999999999552e-02 1.542640000000000122e-01 6.503100000000000547e-02 4.038970000000000060e-01 -1.813889999999999947e-01 1.786790000000000045e-01 4.995100000000000234e-02 -1.265910000000000091e-01 4.255740000000000078e-01 -6.449100000000000665e-02 -2.365869999999999918e-01 1.255920000000000092e-01 -1.103200000000000014e-01 -3.886099999999999971e-02 7.553300000000000292e-02 -4.735700000000000326e-02 4.119699999999999751e-02 2.984284000000000159e+00 1.681372000000000089e+00 -2.422340000000000160e+00 1.897300000000000028e-02 -8.000699999999999479e-02 -5.112099999999999977e-02 2.981122000000000050e+00 -1.751022000000000078e+00 2.406178999999999846e+00 3.100800000000000084e-02 -3.454130000000000145e+00 -2.411137999999999781e+00 3.093840999999999841e+00 1.773228000000000026e+00 -2.521246999999999794e+00 3.016153999999999780e+00 -1.668784999999999963e+00 -1.255446999999999980e+00 1.029439999999999938e-01 1.537099999999999925e-02 3.678447999999999940e+00 -2.956160000000000121e+00 -1.750820000000000043e+00 -1.317145999999999928e+00 3.374900000000000122e-02 3.455827000000000204e+00 2.457285999999999859e+00 -2.987375000000000114e+00 1.711457999999999924e+00 -2.476218999999999948e+00 3.736400000000000138e-02 3.410179999999999989e+00 -1.228353000000000028e+00 -2.987073000000000089e+00 1.818780000000000063e+00 1.185704000000000091e+00 -2.981739000000000139e+00 -1.736950999999999912e+00 2.514965999999999813e+00 -3.043792999999999971e+00 -1.772780000000000022e+00 2.413730000000000153e+00 -2.908910000000000107e+00 -1.743511999999999951e+00 -1.191707000000000072e+00 3.098663999999999863e+00 1.742877999999999927e+00 -2.515708000000000055e+00 2.194899999999999976e-02 -5.135200000000000181e-02 3.594317999999999902e+00 -7.839999999999999747e-02 6.969999999999999633e-03 4.696399999999999880e-02 -6.650999999999999968e-02 4.627900000000000069e-02 1.300310000000000077e-01 -1.518029999999999935e-01 -2.949999999999999931e-03 -1.030099999999999939e-02 -4.469999999999999668e-02 1.620280000000000054e-01 4.743700000000000000e-02 3.003206000000000042e+00 1.823868000000000045e+00 -2.485876000000000197e+00 -1.077649999999999997e-01 1.255940000000000112e-01 -5.551500000000000185e-02 -8.798300000000000565e-02 1.903799999999999937e-02 3.651549000000000156e+00 -3.030701000000000089e+00 -1.679953000000000030e+00 -1.153021999999999991e+00 2.958394000000000190e+00 -1.692010999999999932e+00 -1.211721999999999966e+00 -3.570749999999999758e-01 -3.596300000000000191e-02 9.100000000000000450e-03 -1.752529999999999921e-01 6.897599999999999565e-02 3.068940000000000001e-01 -3.245620000000000172e-01 3.813219999999999943e-01 5.743399999999999894e-02 -3.193139999999999867e-01 3.843059999999999810e-01 6.577500000000000013e-02 8.230099999999999916e-02 -1.114750000000000046e-01 -1.108300000000000084e-02 -2.172400000000000025e-02 -2.951159999999999894e-01 -2.237810000000000077e-01 2.573489999999999944e-01 -1.339750000000000107e-01 2.328669999999999907e-01 5.092599999999999905e-02 -3.485249999999999737e-01 1.291390000000000038e-01 1.918699999999999919e-02 -3.667810000000000237e-01 7.724699999999999622e-02 1.782100000000000073e-01 2.517329999999999846e-01 1.961670000000000080e-01 -1.438659999999999939e-01 6.578399999999999526e-02 -3.306029999999999802e-01 2.530270000000000019e-01 1.887580000000000091e-01 -2.235419999999999907e-01 2.358099999999999918e-01 -6.920700000000000462e-02 2.044310000000000016e-01 -2.910400000000000140e-02 -2.221859999999999946e-01 -2.283739999999999937e-01 1.850970000000000115e-01 -2.642979999999999774e-01 2.164540000000000075e-01 -7.997999999999999901e-03 -3.757860000000000089e-01 -9.982599999999999807e-02 1.558019999999999960e-01 1.307499999999999982e-02 -1.016149999999999970e-01 3.433100000000000041e-02 1.010339999999999988e-01 -1.323409999999999864e-01 9.515800000000000647e-02 1.361719999999999875e-01 -3.212399999999999978e-02
-1.227310000000000068e-01 1.047470000000000068e-01 1.026559999999999973e-01 -6.982299999999999618e-02 1.069869999999999988e-01 1.436600000000000030e-02 -2.629300000000000040e-02 -1.423159999999999981e-01 -6.329000000000000424e-03 -1.828639999999999988e-01 4.351999999999999966e-03 2.629489999999999883e-01 -9.634399999999999908e-02 -1.379400000000000071e-02 6.505700000000000371e-02 1.642400000000000110e-02 -1.895950000000000135e-01 -1.210640000000000049e-01 1.723050000000000137e-01 -2.567090000000000205e-01 -2.105930000000000024e-01 2.933799999999999950e-02 6.833899999999999697e-02 1.517300000000000072e-02 4.112000000000000204e-03 -5.285200000000000314e-02 3.896700000000000164e-02 8.656000000000000499e-03 -6.248000000000000081e-02 3.683968999999999827e+00 -2.989721999999999991e+00 -1.766234999999999999e+00 -1.257597999999999994e+00 2.903217999999999854e+00 -1.730839999999999934e+00 -1.234812999999999938e+00 3.047133000000000091e+00 1.749627000000000043e+00 -2.407671999999999812e+00 3.012239999999999807e+00 -1.704606000000000066e+00 -1.267285999999999913e+00 3.040360999999999869e+00 -1.747168000000000054e+00 2.452585000000000015e+00 -2.968636000000000053e+00 -1.737921999999999967e+00 -1.144868999999999915e+00 2.821000000000000157e-03 3.370328999999999908e+00 -1.284027999999999947e+00 -6.402999999999999838e-03 3.416043000000000163e+00 -1.191616000000000009e+00 -4.456600000000000145e-02 3.390589999999999993e+00 -1.208879000000000037e+00 1.357099999999999973e-02 3.404269999999999907e+00 -1.183300999999999936e+00 -3.039801000000000197e+00 1.768688000000000038e+00 1.207665999999999906e+00 4.089000000000000273e-02 -3.540535000000000210e+00 1.219711999999999907e+00 -3.055133000000000099e+00 -1.746614000000000111e+00 2.456262999999999863e+00 -2.934344999999999981e+00 -1.766243999999999925e+00 -1.226034999999999986e+00 3.023214999999999986e+00 -1.738550999999999958e+00 -1.201227000000000045e+00 1.558499999999999990e-02 -5.741199999999999776e-02 3.612592999999999943e+00 -7.585699999999999388e-02 -3.517699999999999994e-02 3.701700000000000129e-02 1.662500000000000089e-02 3.427095000000000002e+00 -1.169235999999999942e+00 2.937936999999999799e+00 -1.720642000000000005e+00 -1.212171000000000110e+00 -4.241199999999999831e-02 7.243299999999999739e-02 3.678897999999999779e+00 -3.105198000000000125e+00 1.816519999999999913e+00 -2.479693000000000147e+00 -8.466600000000000514e-02 8.346599999999999853e-02 -7.960899999999999921e-02 -7.873499999999999943e-02 4.389999999999999914e-04 3.653614999999999835e+00 -3.869999999999999829e-02 -3.606352999999999920e+00 -2.442600000000000104e+00 -3.292400000000000188e-02 2.881399999999999934e-02 -1.570200000000000068e-02 -1.896039999999999948e-01 -2.493920000000000026e-01 -1.474290000000000045e-01 -2.174999999999999850e-02 7.989999999999999880e-02 2.190560000000000007e-01 -2.882850000000000135e-01 2.849169999999999758e-01 -1.579609999999999903e-01 1.881190000000000084e-01 3.725280000000000258e-01 -4.650900000000000173e-02 -1.353800000000000003e-01 3.493220000000000214e-01 3.249000000000000152e-03 4.585999999999999799e-03 -1.519850000000000090e-01 1.483210000000000084e-01 1.685000000000000039e-02 -1.065419999999999978e-01 5.647300000000000236e-02 -1.356449999999999878e-01 -9.940599999999999437e-02 2.154469999999999996e-01 9.658899999999999431e-02 -2.713700000000000001e-01 3.017310000000000270e-01 2.979379999999999806e-01 2.072829999999999950e-01 9.307600000000000595e-02 3.465399999999999731e-02 3.978260000000000129e-01 -4.694209999999999772e-01 1.104799999999999949e-01 2.283550000000000024e-01 -1.905070000000000097e-01 3.330600000000000227e-01 -2.643300000000000094e-01 1.655079999999999885e-01 2.084820000000000007e-01 1.503900000000000028e-02 -2.398629999999999929e-01 1.105970000000000009e-01 -6.119000000000000133e-02 -1.746499999999999997e-01 2.961369999999999836e-01 -6.871800000000000130e-02 2.296549999999999980e-01 -5.164300000000000140e-02 -3.157000000000000084e-03 -1.753780000000000061e-01 2.308599999999999888e-02 2.446100000000000010e-02 1.405849999999999878e-01 -1.875489999999999935e-01 1.197659999999999975e-01 -1.285469999999999946e-01
-3.101599999999999843e-02 -8.028999999999999679e-03 -3.653700000000000003e-02 1.219329999999999997e-01 -7.940300000000000136e-02 -9.870000000000000301e-04 -2.728900000000000076e-02 -2.195010000000000017e-01 1.127240000000000048e-01 -1.489020000000000066e-01 1.244529999999999942e-01 7.158200000000000673e-02 -2.848220000000000196e-01 -2.029809999999999948e-01 3.923399999999999804e-02 9.486999999999999600e-02 6.588199999999999612e-02 -3.089499999999999885e-02 3.593199999999999866e-02 1.733689999999999953e-01 -1.504860000000000086e-01 6.097199999999999842e-02 -1.220809999999999951e-01 3.465800000000000131e-02 -3.022092999999999918e+00 -1.661939999999999973e+00 -1.158833999999999920e+00 -4.028999999999999596e-03 9.675899999999999779e-02 -7.200000000000000182e-05 -5.943699999999999678e-02 6.314400000000000568e-02 3.614713000000000065e+00 2.958436999999999983e+00 -1.738993999999999929e+00 -1.094335999999999975e+00 2.948662000000000116e+00 -1.775012999999999952e+00 -1.227378999999999998e+00 2.947311000000000014e+00 -1.742459999999999898e+00 -1.246469000000000049e+00 3.045749999999999957e+00 1.737943999999999933e+00 -2.440177999999999958e+00 -4.805899999999999755e-02 -6.975099999999999356e-02 1.902200000000000071e-02 1.345999999999999974e-03 -4.667999999999999927e-02 1.907800000000000121e-02 3.106647999999999854e+00 1.809593000000000007e+00 -2.395240999999999953e+00 2.969546999999999937e+00 1.727803999999999895e+00 -2.579041999999999835e+00 2.075300000000000061e-02 3.428532999999999831e+00 -1.222642999999999924e+00 -3.103282000000000096e+00 1.805558999999999914e+00 1.243365999999999971e+00 3.233500000000000263e-02 -3.524741000000000124e+00 1.218232999999999899e+00 -2.968588000000000005e+00 -1.736602999999999897e+00 2.457597999999999949e+00 -2.929721999999999937e+00 -1.825890999999999931e+00 -1.188430000000000097e+00 9.636799999999999533e-02 -1.038229999999999986e-01 -3.000000000000000076e-06 7.454399999999999915e-02 -1.137409999999999949e-01 3.612883000000000067e+00 -3.299599999999999755e-02 -3.574584999999999901e+00 1.265878000000000059e+00 -3.003013000000000154e+00 1.760734999999999939e+00 -2.536373999999999906e+00 6.868399999999999506e-02 8.418599999999999695e-02 3.632406000000000024e+00 -5.007099999999999745e-02 3.268399999999999778e-02 3.715434999999999821e+00 -2.995295000000000041e+00 -1.713314000000000004e+00 -1.259303000000000061e+00 -6.812600000000000600e-02 6.431000000000000084e-03 -1.348000000000000066e-02 -4.953500000000000264e-02 3.418517000000000028e+00 -1.101282000000000094e+00 -7.184200000000000308e-02 3.446989999999999998e+00 -1.187545999999999990e+00 -3.051399999999999946e-02 -3.602999999999999953e-02 -1.009700000000000007e-02 -2.041290000000000049e-01 3.620299999999999907e-02 -1.556100000000000018e-02 -3.133610000000000007e-01 8.817999999999999450e-02 2.616640000000000077e-01 -2.625509999999999788e-01 3.729299999999999976e-02 -4.351590000000000180e-01 1.929960000000000009e-01 1.195739999999999997e-01 -1.520890000000000020e-01 2.259440000000000059e-01 3.214719999999999800e-01 3.127800000000000025e-01 3.159300000000000302e-02 -3.717299999999999771e-02 8.867400000000000282e-02 -2.299339999999999995e-01 -2.450789999999999913e-01 3.549200000000000133e-01 -1.741189999999999960e-01 1.383600000000000108e-01 -5.943199999999999872e-02 -2.626439999999999886e-01 3.656449999999999978e-01 -2.173009999999999942e-01 8.739900000000000446e-02 2.257899999999999907e-01 2.343830000000000080e-01 -2.730779999999999874e-01 2.085809999999999886e-01 1.703810000000000047e-01 1.673439999999999928e-01 -3.296930000000000138e-01 -3.930199999999999666e-02 2.008270000000000055e-01 -4.023249999999999882e-01 -2.248829999999999996e-01 3.288659999999999917e-01 -1.856579999999999897e-01 1.590580000000000049e-01 2.796449999999999769e-01 1.380709999999999993e-01 -4.305680000000000063e-01 4.676259999999999861e-01 2.518900000000000028e-01 -2.131790000000000074e-01 2.477000000000000035e-01 2.527499999999999886e-02 -1.202249999999999985e-01 -1.846720000000000028e-01 -1.302550000000000097e-01 -2.400730000000000086e-01 1.908800000000000080e-02 -1.131729999999999958e-01 3.887120000000000020e-01
-5.169699999999999990e-02 2.334699999999999970e-02 1.624009999999999898e-01 -2.743510000000000115e-01 1.171320000000000000e-01 -4.340399999999999814e-02 -1.266909999999999981e-01 4.738000000000000024e-03 9.109299999999999342e-02 -1.827449999999999908e-01 -8.409700000000000508e-02 3.030829999999999913e-01 1.251099999999999955e-02 1.302520000000000067e-01 -1.071200000000000069e-01 3.067520000000000246e-01 2.095800000000000093e-02 -1.532250000000000001e-01 9.767099999999999393e-02 -2.153210000000000124e-01 -3.462099999999999900e-02 -2.103999999999999967e-02 -1.011520000000000058e-01 -5.198799999999999949e-02 6.113999999999999990e-02 -7.256600000000000550e-02 4.679699999999999832e-02 3.167899999999999883e-02 3.393193000000000126e+00 -1.228909999999999947e+00 4.368999999999999620e-03 -8.404499999999999471e-02 -3.187600000000000156e-02 2.968135000000000190e+00 -1.820929999999999938e+00 2.452456000000000191e+00 -3.195900000000000130e-02 -1.282400000000000033e-02 -3.721883000000000052e+00 3.071676000000000073e+00 1.766397999999999913e+00 -2.469383000000000106e+00 3.069782000000000011e+00 -1.688398999999999983e+00 2.456160000000000121e+00 -2.977822999999999887e+00 -1.771536999999999917e+00 2.477898000000000156e+00 -2.916684000000000054e+00 -1.759269999999999889e+00 -1.306680999999999981e+00 3.042480999999999991e+00 1.752296999999999993e+00 -2.416189000000000142e+00 -3.412199999999999955e-02 3.430503999999999998e+00 -1.221039999999999903e+00 -5.473900000000000293e-02 3.418518999999999863e+00 -1.184283999999999892e+00 -3.003413999999999806e+00 1.801121999999999890e+00 1.181429999999999980e+00 -2.984522999999999815e+00 -1.714309000000000083e+00 2.464923999999999893e+00 -3.036605000000000221e+00 -1.657812999999999981e+00 2.428268000000000093e+00 -2.948109999999999786e+00 -1.756477000000000066e+00 -1.190415000000000001e+00 5.434999999999999727e-03 -3.541799999999999810e-02 -2.512500000000000150e-02 -2.256100000000000119e-02 -2.262799999999999881e-02 3.688307000000000002e+00 -3.036383999999999972e+00 -1.732718999999999898e+00 -1.194669999999999899e+00 -4.496800000000000103e-02 7.347000000000000232e-03 5.496299999999999797e-02 -4.537000000000000234e-03 2.102100000000000149e-02 3.630256000000000149e+00 -4.930199999999999860e-02 1.250080000000000080e-01 3.588999999999999829e-02 2.949545999999999779e+00 -1.662288999999999906e+00 -1.275635000000000074e+00 -9.028400000000000314e-02 9.187199999999999533e-02 -4.023299999999999793e-02 -7.772600000000000342e-02 3.457812999999999803e+00 -1.147623999999999977e+00 2.931379999999999875e+00 -1.766663000000000094e+00 -1.227969000000000088e+00 2.929390999999999856e+00 -1.753303000000000056e+00 -1.171948999999999907e+00 -3.891189999999999927e-01 -1.833559999999999912e-01 1.625759999999999983e-01 -3.714529999999999776e-01 -1.090560000000000002e-01 2.379779999999999951e-01 -1.567010000000000070e-01 2.438539999999999874e-01 -2.899450000000000083e-01 1.587749999999999995e-01 4.225320000000000187e-01 -1.487469999999999903e-01 -7.524799999999999545e-02 5.356469999999999843e-01 7.656899999999999817e-02 -6.371799999999999686e-02 -8.236599999999999477e-02 -1.217749999999999944e-01 4.601000000000000228e-02 -4.139900000000000246e-01 -2.948900000000000132e-02 2.089670000000000138e-01 -2.727319999999999744e-01 3.139710000000000001e-01 3.786699999999999788e-02 -1.169049999999999950e-01 -2.078710000000000002e-01 3.288610000000000144e-01 3.362400000000000111e-02 -1.862250000000000016e-01 4.159970000000000057e-01 -3.394309999999999827e-01 9.601400000000000212e-02 1.386529999999999985e-01 8.867099999999999982e-02 -1.920910000000000117e-01 1.988489999999999980e-01 1.242469999999999963e-01 -5.477300000000000224e-02 1.997929999999999984e-01 -8.463500000000000190e-02 1.011900000000000022e-01 -1.391500000000000029e-02 -1.204399999999999915e-02 -1.286170000000000091e-01 1.254699999999999982e-01 -8.699400000000000188e-02 9.767199999999999493e-02 8.437000000000000055e-02 -2.379300000000000165e-02 -2.595400000000000137e-02 -2.836429999999999785e-01 2.287659999999999971e-01 -5.666600000000000109e-02 -1.014960000000000029e-01 1.981989999999999863e-01 1.264810000000000101e-01
2.743599999999999858e-02 1.161139999999999950e-01 1.472660000000000080e-01 -3.355600000000000249e-02 1.281180000000000097e-01 -3.150499999999999828e-02 -1.161399999999999932e-02 -1.068719999999999948e-01 2.075120000000000020e-01 -7.935699999999999699e-02 -2.315029999999999866e-01 -1.368260000000000032e-01 -8.611699999999999910e-02 1.446729999999999960e-01 -1.329519999999999869e-01 -8.450199999999999378e-02 -1.123559999999999975e-01 1.545630000000000059e-01 1.725700000000000151e-02 -1.311009999999999953e-01 -9.096300000000000219e-02 -2.854699999999999946e-02 9.676800000000000679e-02 -8.212899999999999368e-02 -1.922000000000000097e-03 -7.195899999999999519e-02 2.402599999999999875e-02 -2.156900000000000137e-02 -3.275100000000000233e-02 3.627647000000000066e+00 -3.008453999999999962e+00 1.744100999999999901e+00 -2.449529000000000067e+00 2.932309000000000054e+00 -1.690671000000000035e+00 -1.249657000000000018e+00 3.054358999999999824e+00 -1.667836000000000096e+00 2.486711000000000116e+00 -2.975035000000000096e+00 -1.729567000000000077e+00 -1.238968000000000069e+00 3.003906999999999883e+00 -1.724385000000000057e+00 -1.212591999999999892e+00 2.973221999999999809e+00 -1.773093000000000030e+00 -1.236663999999999985e+00 3.031899999999999873e-02 3.415388999999999786e+00 -1.223700000000000010e+00 9.006000000000000116e-03 3.408955999999999875e+00 -1.198809000000000013e+00 6.930600000000000649e-02 3.427652999999999839e+00 -1.226402999999999910e+00 2.411299999999999902e-02 -8.250000000000000389e-02 -1.620800000000000018e-02 -3.161958999999999964e+00 1.780729000000000006e+00 1.230774000000000035e+00 2.705300000000000066e-02 -2.006700000000000150e-02 -3.768778000000000183e+00 7.707000000000000309e-03 5.022299999999999681e-02 3.618667999999999996e+00 1.286799999999999923e-02 -3.561554000000000109e+00 1.251981999999999928e+00 -2.956850000000000200e+00 -1.774137000000000075e+00 -1.226296999999999970e+00 2.471299999999999886e-02 -4.885400000000000159e-02 3.673436999999999841e+00 -3.404599999999999987e-02 -5.676999999999999755e-03 2.931699999999999931e-02 -7.480299999999999450e-02 3.440576000000000079e+00 -1.249816999999999956e+00 2.920927999999999969e+00 -1.713236999999999899e+00 -1.209775999999999962e+00 3.034900000000000098e-02 3.516207999999999778e+00 2.465752000000000166e+00 -3.014466000000000090e+00 -1.592897000000000007e+00 -1.221770999999999940e+00 2.940986999999999796e+00 -1.622627000000000042e+00 -1.291031000000000040e+00 -3.014425000000000132e+00 -1.711940999999999935e+00 -1.150657999999999959e+00 -4.238200000000000300e-02 -2.760299999999999906e-02 2.196499999999999841e-02 -6.617199999999999471e-02 -4.363299999999999818e-02 3.672051999999999872e+00 -1.878839999999999955e-01 -1.931519999999999904e-01 1.253279999999999950e-01 -2.187820000000000042e-01 1.180100000000000038e-01 2.462900000000000089e-01 -1.219309999999999977e-01 2.361880000000000090e-01 -1.524399999999999922e-01 -2.253000000000000003e-01 3.357010000000000272e-01 1.262699999999999934e-02 -3.254200000000000148e-02 3.351390000000000202e-01 1.102700000000000034e-02 1.026019999999999988e-01 -4.389900000000000052e-02 8.708599999999999675e-02 1.658920000000000117e-01 -3.581090000000000106e-01 2.939800000000000052e-02 -3.789939999999999976e-01 -2.813359999999999750e-01 -1.719279999999999975e-01 1.888650000000000051e-01 -1.042010000000000020e-01 3.408079999999999998e-01 1.047610000000000069e-01 6.174899999999999833e-02 -2.449999999999999956e-01 -1.194600000000000002e-02 4.094789999999999819e-01 -2.450970000000000093e-01 1.171949999999999936e-01 2.310750000000000026e-01 1.637099999999999944e-01 4.142599999999999755e-02 -1.286349999999999993e-01 2.654000000000000109e-02 9.293099999999999972e-02 -3.720530000000000226e-01 1.582129999999999925e-01 1.327349999999999919e-01 -7.699000000000000288e-02 -2.543340000000000045e-01 4.613820000000000143e-01 -2.030089999999999950e-01 -1.891899999999999832e-02 6.150300000000000211e-02 -1.144000000000000052e-03 2.666500000000000120e-02 1.952600000000000169e-02 1.067590000000000067e-01 -4.877999999999999697e-02 2.784980000000000233e-01 1.357410000000000005e-01 -5.783800000000000052e-02
6.779699999999999616e-02 1.712970000000000048e-01 1.257469999999999977e-01 5.460799999999999682e-02 5.437299999999999772e-02 -2.426989999999999981e-01 -3.717700000000000171e-02 -1.207980000000000026e-01 2.046610000000000096e-01 -1.866510000000000113e-01 -1.338890000000000080e-01 -1.312609999999999888e-01 -2.097330000000000028e-01 -7.526800000000000157e-02 -1.624609999999999943e-01 -1.087399999999999999e-02 1.285380000000000134e-01 2.028300000000000103e-01 2.455099999999999991e-02 3.581969999999999876e-01 -2.671099999999999863e-02 2.316400000000000056e-02 -7.030999999999999750e-02 -8.363199999999999801e-02 -3.265300000000000147e-02 -1.137999999999999949e-02 4.443400000000000127e-02 7.870000000000000259e-03 2.174200000000000091e-02 3.686498999999999970e+00 -3.040852000000000110e+00 -1.722104999999999997e+00 -1.254725000000000090e+00 2.932923999999999864e+00 -1.711025000000000018e+00 -1.223384000000000027e+00 2.938270999999999855e+00 -1.728404999999999969e+00 -1.143199000000000076e+00 -2.825300000000000034e-02 4.166500000000000065e-02 -5.296300000000000313e-02 2.913114999999999899e+00 -1.695430999999999910e+00 -1.240031000000000105e+00 2.913012000000000157e+00 -1.730361999999999956e+00 -1.151995000000000102e+00 -4.462999999999999953e-03 3.460202000000000222e+00 -1.229087999999999958e+00 5.361799999999999899e-02 3.433051999999999992e+00 -1.217811999999999895e+00 3.043721000000000121e+00 1.742988999999999900e+00 -2.458937000000000150e+00 6.017999999999999738e-02 -5.519600000000000201e-02 -6.715000000000000135e-02 -3.078498999999999874e+00 1.767565000000000053e+00 1.252269000000000077e+00 3.036499999999999963e-02 2.920999999999999985e-02 -3.768787999999999805e+00 4.623800000000000132e-02 8.503000000000000141e-03 3.593208999999999875e+00 -3.003103999999999996e+00 -1.748529000000000000e+00 2.479980999999999991e+00 -2.872755999999999865e+00 -1.756675999999999904e+00 -1.231146000000000074e+00 3.079381000000000146e+00 -1.759749999999999925e+00 2.465723000000000109e+00 -6.328000000000000291e-02 -4.923199999999999799e-02 3.652363999999999944e+00 -3.085841999999999974e+00 1.783090999999999982e+00 -2.429904000000000064e+00 2.991146999999999778e+00 -1.678301999999999961e+00 -1.206638000000000099e+00 4.073500000000000038e-02 3.856500000000000206e-02 3.630923000000000123e+00 -2.986377000000000059e+00 -1.664816999999999991e+00 -1.186479999999999979e+00 -2.101700000000000096e-02 3.448592000000000102e+00 -1.288823000000000052e+00 3.215400000000000202e-02 3.815400000000000041e-02 2.615599999999999870e-02 -8.151899999999999424e-02 3.585660999999999987e+00 2.562399000000000093e+00 -2.988983999999999863e+00 -1.714156000000000013e+00 -1.226785999999999932e+00 -1.065180000000000016e-01 -7.990899999999999392e-02 2.364890000000000048e-01 -1.154300000000000048e-01 -7.384599999999999498e-02 1.940580000000000083e-01 -3.097280000000000033e-01 2.072680000000000078e-01 -3.085299999999999848e-02 -1.082270000000000038e-01 1.793959999999999999e-01 -1.219510000000000038e-01 2.416780000000000039e-01 1.225580000000000003e-01 5.426600000000000174e-02 -3.412599999999999661e-02 2.053599999999999870e-01 3.070999999999999841e-01 -6.308900000000000619e-02 -1.146299999999999923e-02 1.973300000000000054e-02 -1.993810000000000027e-01 -2.285310000000000119e-01 2.380309999999999926e-01 -4.713499999999999912e-01 -7.212300000000000655e-02 -1.558130000000000071e-01 1.468009999999999871e-01 2.267600000000000171e-02 1.291470000000000118e-01 -2.621979999999999866e-01 3.118000000000000112e-03 -1.397239999999999871e-01 1.095269999999999994e-01 -1.892620000000000136e-01 1.103900000000000020e-01 2.045659999999999978e-01 -3.054029999999999800e-01 -4.968399999999999900e-02 1.770400000000000029e-01 3.780700000000000033e-02 -2.030319999999999903e-01 2.858700000000000130e-01 1.862199999999999966e-02 -1.182109999999999966e-01 6.525279999999999969e-01 -1.512209999999999943e-01 -1.625500000000000000e-01 5.012599999999999695e-02 -1.320729999999999960e-01 -1.947379999999999944e-01 1.646479999999999888e-01 -1.631460000000000132e-01 1.752579999999999971e-01 1.164489999999999970e-01 -7.559599999999999653e-02 -1.904990000000000017e-01