3.243508879033619507e+00 1.761158059664347563e-21 0.000000000000000000e+00 -1.621780392411737104e+00 2.808946099910949457e+00 0.000000000000000000e+00 0.000000000000000000e+00 0.000000000000000000e+00 4.177312267999999662e+00
3.183393312999999836e+00 0.000000000000000000e+00 0.000000000000000000e+00 -1.619129067999999894e+00 2.749766172000000175e+00 0.000000000000000000e+00 1.119306389999999984e-01 -7.088007000000000335e-02 4.249918437999999909e+00
3.205438358999999959e+00 0.000000000000000000e+00 0.000000000000000000e+00 -1.643535847000000105e+00 2.763883233000000050e+00 0.000000000000000000e+00 -1.119803780000000054e-01 6.386468100000000647e-02 4.146713606999999691e+00
3.335727512000000061e+00 0.000000000000000000e+00 0.000000000000000000e+00 -1.645617292999999925e+00 2.761859928999999880e+00 0.000000000000000000e+00 3.763143000000000044e-02 -1.098642279999999943e-01 4.233296024999999574e+00
3.216789298000000130e+00 0.000000000000000000e+00 0.000000000000000000e+00 -1.656105830000000001e+00 2.884873406000000085e+00 0.000000000000000000e+00 -2.048815000000000011e-02 -6.852284000000000153e-02 4.190626900999999904e+00
3.169194420999999817e+00 0.000000000000000000e+00 0.000000000000000000e+00 -1.515546011000000082e+00 2.821606232000000158e+00 0.000000000000000000e+00 -2.987938999999999786e-03 5.037071399999999699e-02 4.243188779999999660e+00
3.175792239999999822e+00 0.000000000000000000e+00 0.000000000000000000e+00 -1.515915662000000053e+00 2.827789174999999933e+00 0.000000000000000000e+00 3.982963700000000107e-02 -6.518283499999999453e-02 4.159133642999999658e+00
3.227448800999999978e+00 0.000000000000000000e+00 0.000000000000000000e+00 -1.663418653999999997e+00 2.818213679999999943e+00 0.000000000000000000e+00 -5.768536099999999750e-02 -9.189307600000000409e-02 4.109883735000000371e+00
3.322921189000000108e+00 0.000000000000000000e+00 0.000000000000000000e+00 -1.688367618000000014e+00 2.729675353999999832e+00 0.000000000000000000e+00 -2.683196200000000087e-02 -1.032769899999999991e-01 4.246478941000000340e+00
3.265119020000000205e+00 0.000000000000000000e+00 0.000000000000000000e+00 -1.604421137000000108e+00 2.739601200000000070e+00 0.000000000000000000e+00 2.962715200000000035e-02 -1.121669089999999952e-01 4.201264341999999985e+00
3.310361787999999805e+00 0.000000000000000000e+00 0.000000000000000000e+00 -1.600154655000000092e+00 2.800738781999999816e+00 0.000000000000000000e+00 6.308311799999999359e-02 -6.851758700000000479e-02 4.067440035999999814e+00
3.174067630999999778e+00 0.000000000000000000e+00 0.000000000000000000e+00 -1.534295616000000084e+00 2.854949325000000204e+00 0.000000000000000000e+00 1.092057379999999966e-01 7.754785699999999782e-02 4.239732687000000055e+00
3.289348330000000153e+00 0.000000000000000000e+00 0.000000000000000000e+00 -1.634263419000000050e+00 2.838036579999999809e+00 0.000000000000000000e+00 -3.365204399999999901e-02 -4.119535099999999811e-02 4.086431998000000121e+00
3.239797776000000074e+00 0.000000000000000000e+00 0.000000000000000000e+00 -1.613903169999999943e+00 2.800418488000000039e+00 0.000000000000000000e+00 -2.208654300000000015e-02 4.568863900000000311e-02 4.124169926999999625e+00
3.182882332000000147e+00 0.000000000000000000e+00 0.000000000000000000e+00 -1.571421042999999962e+00 2.794696757000000087e+00 0.000000000000000000e+00 2.238319500000000156e-02 1.370917500000000053e-02 4.153905477000000346e+00
3.264680443000000043e+00 0.000000000000000000e+00 0.000000000000000000e+00 -1.554183451999999965e+00 2.883599024000000011e+00 0.000000000000000000e+00 -1.106653840000000055e-01 7.655252899999999416e-02 4.282863608999999627e+00
3.169623576999999859e+00 0.000000000000000000e+00 0.000000000000000000e+00 -1.599744410000000006e+00 2.883793134999999896e+00 0.000000000000000000e+00 -1.151509000000000039e-02 -6.586007600000000350e-02 4.272155065999999835e+00
3.190950808999999833e+00 0.000000000000000000e+00 0.000000000000000000e+00 -1.604184567999999977e+00 2.840075707000000005e+00 0.000000000000000000e+00 2.862100399999999850e-02 1.072566330000000040e-01 4.256273547000000157e+00
3.208623906000000137e+00 0.000000000000000000e+00 0.000000000000000000e+00 -1.678300188999999998e+00 2.832112899999999822e+00 0.000000000000000000e+00 1.142819669999999982e-01 1.200121279999999957e-01 4.260047677000000199e+00
3.252556636000000001e+00 0.000000000000000000e+00 0.000000000000000000e+00 -1.545222359000000045e+00 2.840182049000000042e+00 0.000000000000000000e+00 3.561435699999999926e-02 -8.940037000000000678e-02 4.228849062000000103e+00
3.336225348999999785e+00 0.000000000000000000e+00 0.000000000000000000e+00 -1.640201323999999961e+00 2.873920006000000082e+00 0.000000000000000000e+00 1.094500709999999960e-01 -5.993647500000000294e-02 4.217323022000000421e+00
3.276271594033958845e+00 -2.060322398803901392e-21 0.000000000000000000e+00 -1.638162012449009941e+00 2.837319293410049514e+00 0.000000000000000000e+00 0.000000000000000000e+00 0.000000000000000000e+00 4.219507341999999994e+00
3.226723553999999883e+00 0.000000000000000000e+00 0.000000000000000000e+00 -1.592307192999999899e+00 2.822251828999999823e+00 0.000000000000000000e+00 6.087402299999999933e-02 1.373136399999999938e-02 4.282982847999999620e+00
3.183719920999999786e+00 0.000000000000000000e+00 0.000000000000000000e+00 -1.595321167000000040e+00 2.890427814000000151e+00 0.000000000000000000e+00 -1.257489330000000072e-01 1.049139099999999922e-02 4.250164191999999730e+00
3.320458399000000060e+00 0.000000000000000000e+00 0.000000000000000000e+00 -1.737482344000000012e+00 2.863742787000000067e+00 0.000000000000000000e+00 -5.051690400000000136e-02 -5.978977900000000123e-02 4.094015669000000024e+00
3.324873841000000052e+00 0.000000000000000000e+00 0.000000000000000000e+00 -1.730786055999999906e+00 2.898594072999999938e+00 0.000000000000000000e+00 -6.569700300000000381e-02 8.972188100000000333e-02 4.135847154000000359e+00
3.200189103000000035e+00 0.000000000000000000e+00 0.000000000000000000e+00 -1.528069059999999979e+00 2.901089908999999967e+00 0.000000000000000000e+00 -2.216824100000000172e-02 -4.134268199999999865e-02 4.101175064999999620e+00
3.278888757999999903e+00 0.000000000000000000e+00 0.000000000000000000e+00 -1.568656760999999955e+00 2.816027579000000003e+00 0.000000000000000000e+00 1.139345899999999988e-02 2.967906999999999837e-02 4.297192652999999751e+00
3.337439854999999955e+00 0.000000000000000000e+00 0.000000000000000000e+00 -1.675470266000000041e+00 2.911107744000000164e+00 0.000000000000000000e+00 4.198868099999999992e-02 2.625081000000000029e-03 4.311307477999999804e+00
3.226870898000000043e+00 0.000000000000000000e+00 0.000000000000000000e+00 -1.664921984000000021e+00 2.891110074000000196e+00 0.000000000000000000e+00 7.245184500000000083e-02 6.055031400000000091e-02 4.171774527000000177e+00
3.314329988999999976e+00 0.000000000000000000e+00 0.000000000000000000e+00 -1.618214776000000077e+00 2.761748820999999854e+00 0.000000000000000000e+00 -7.355080799999999530e-02 8.242887599999999815e-02 4.094646930999999768e+00
3.265062273999999931e+00 0.000000000000000000e+00 0.000000000000000000e+00 -1.650452814000000101e+00 2.901857167000000182e+00 0.000000000000000000e+00 1.099318559999999945e-01 1.074177119999999985e-01 4.312555009999999633e+00
3.192094360000000020e+00 0.000000000000000000e+00 0.000000000000000000e+00 -1.628409167000000046e+00 2.766424762000000204e+00 0.000000000000000000e+00 7.299533999999999884e-03 -7.212842899999999391e-02 4.283526088000000343e+00
3.222679126000000061e+00 0.000000000000000000e+00 0.000000000000000000e+00 -1.530453789999999925e+00 2.862748014000000119e+00 0.000000000000000000e+00 1.259475509999999909e-01 3.544560199999999967e-02 4.153052779000000250e+00
3.277576938000000162e+00 0.000000000000000000e+00 0.000000000000000000e+00 -1.700174969000000091e+00 2.872749240000000093e+00 0.000000000000000000e+00 5.343566000000000114e-03 -1.193722220000000001e-01 4.173457712000000264e+00
3.291748287999999967e+00 0.000000000000000000e+00 0.000000000000000000e+00 -1.683778495000000097e+00 2.776391178999999987e+00 0.000000000000000000e+00 -9.692552699999999744e-02 -1.433379000000000077e-02 4.205734237999999792e+00
3.188205669999999881e+00 0.000000000000000000e+00 0.000000000000000000e+00 -1.521705601000000074e+00 2.813028232000000184e+00 0.000000000000000000e+00 8.517790299999999926e-02 1.079253699999999962e-02 4.179948534000000215e+00
3.299131200000000153e+00 0.000000000000000000e+00 0.000000000000000000e+00 -1.587057061999999963e+00 2.807150475999999895e+00 0.000000000000000000e+00 1.029128549999999975e-01 7.848829899999999749e-02 4.188294873000000251e+00
3.208504141999999781e+00 0.000000000000000000e+00 0.000000000000000000e+00 -1.565930872999999890e+00 2.804306879999999946e+00 0.000000000000000000e+00 -6.504697299999999405e-02 8.653176399999999713e-02 4.112369324000000326e+00
3.213027695000000072e+00 0.000000000000000000e+00 0.000000000000000000e+00 -1.601581241000000100e+00 2.858843661999999952e+00 0.000000000000000000e+00 -9.289979299999999440e-02 -6.537512500000000615e-02 4.221853304999999779e+00
3.210365927999999869e+00 0.000000000000000000e+00 0.000000000000000000e+00 -1.661698399999999909e+00 2.788199381000000088e+00 0.000000000000000000e+00 4.485312699999999958e-02 8.697003300000000214e-02 4.245116443999999767e+00
3.281926412999999876e+00 0.000000000000000000e+00 0.000000000000000000e+00 -1.709917554000000006e+00 2.880796047000000026e+00 0.000000000000000000e+00 -9.111814499999999761e-02 -6.758509099999999992e-02 4.302131134999999773e+00
3.309034310034297821e+00 7.738028967524238186e-22 0.000000000000000000e+00 -1.654543631486273814e+00 2.865692485909155707e+00 0.000000000000000000e+00 0.000000000000000000e+00 0.000000000000000000e+00 4.261702415000000244e+00
3.403695689000000080e+00 0.000000000000000000e+00 0.000000000000000000e+00 -1.697153203000000055e+00 2.796826939999999873e+00 0.000000000000000000e+00 5.164596800000000043e-02 3.523069399999999990e-02 4.178326359999999795e+00
3.268272506999999827e+00 0.000000000000000000e+00 0.000000000000000000e+00 -1.682184700000000088e+00 2.921494073999999941e+00 0.000000000000000000e+00 4.125846600000000058e-02 -4.090654600000000196e-02 4.377933071000000176e+00
3.258543096999999999e+00 0.000000000000000000e+00 0.000000000000000000e+00 -1.675747156999999987e+00 2.850896822000000164e+00 0.000000000000000000e+00 9.780617299999999625e-02 7.181820799999999450e-02 4.197999259000000372e+00
3.243462898999999844e+00 0.000000000000000000e+00 0.000000000000000000e+00 -1.574018946000000030e+00 2.834148256000000199e+00 0.000000000000000000e+00 -4.518487999999999671e-02 -5.279325499999999727e-02 4.163198331000000252e+00
3.262522656999999882e+00 0.000000000000000000e+00 0.000000000000000000e+00 -1.595771064000000017e+00 2.888510682000000163e+00 0.000000000000000000e+00 -7.767528199999999827e-02 -2.366249299999999972e-02 4.263611316999999623e+00
3.318396095999999851e+00 0.000000000000000000e+00 0.000000000000000000e+00 -1.614006062000000075e+00 2.923488255000000091e+00 0.000000000000000000e+00 2.588267199999999893e-02 -7.734657999999999811e-02 4.263874738000000164e+00
3.340957930000000076e+00 0.000000000000000000e+00 0.000000000000000000e+00 -1.614826834000000044e+00 2.910738391999999841e+00 0.000000000000000000e+00 -4.615766699999999945e-02 -1.692709400000000017e-02 4.317517495999999788e+00
3.268235644000000217e+00 0.000000000000000000e+00 0.000000000000000000e+00 -1.625926565000000101e+00 2.931952923999999960e+00 0.000000000000000000e+00 -4.949168799999999896e-02 -6.493941500000000033e-02 4.312917759000000295e+00
3.241635517000000188e+00 0.000000000000000000e+00 0.000000000000000000e+00 -1.586466627000000074e+00 2.898918486999999988e+00 0.000000000000000000e+00 -1.187483400000000078e-02 8.880857000000000681e-03 4.169188875999999766e+00
3.244699575999999919e+00 0.000000000000000000e+00 0.000000000000000000e+00 -1.693562618999999936e+00 2.915658640999999829e+00 0.000000000000000000e+00 6.416475200000000545e-02 9.897617799999999799e-02 4.277124630000000316e+00
3.317318749000000011e+00 0.000000000000000000e+00 0.000000000000000000e+00 -1.626815474000000039e+00 2.794286130000000146e+00 0.000000000000000000e+00 6.814565300000000048e-02 9.971616699999999445e-02 4.251873046000000045e+00
3.212227865000000016e+00 0.000000000000000000e+00 0.000000000000000000e+00 -1.585559155000000109e+00 2.925817585999999970e+00 0.000000000000000000e+00 -4.107357799999999948e-02 -6.749444999999999750e-03 4.319421638999999757e+00
3.259651108999999991e+00 0.000000000000000000e+00 0.000000000000000000e+00 -1.585743192000000024e+00 2.945565097999999882e+00 0.000000000000000000e+00 1.276016189999999995e-01 -7.415573599999999987e-02 4.263688054000000172e+00
3.226996381000000191e+00 0.000000000000000000e+00 0.000000000000000000e+00 -1.597114810999999968e+00 2.815570911000000009e+00 0.000000000000000000e+00 -4.315888400000000152e-02 2.916064100000000103e-02 4.211046735000000041e+00
3.241729745999999857e+00 0.000000000000000000e+00 0.000000000000000000e+00 -1.594800414000000055e+00 2.859866890999999800e+00 0.000000000000000000e+00 2.440234299999999995e-02 -1.054040990000000011e-01 4.247122337000000414e+00
3.281555508999999926e+00 0.000000000000000000e+00 0.000000000000000000e+00 -1.693941366000000004e+00 2.930687720999999968e+00 0.000000000000000000e+00 -8.358076899999999920e-02 -6.168958299999999922e-02 4.274833178999999816e+00
3.398398745000000165e+00 0.000000000000000000e+00 0.000000000000000000e+00 -1.709380705999999917e+00 2.879390788999999895e+00 0.000000000000000000e+00 -6.240585199999999777e-02 -8.953767599999999660e-02 4.223838347000000049e+00
3.286659269999999911e+00 0.000000000000000000e+00 0.000000000000000000e+00 -1.688392377000000000e+00 2.875889872000000125e+00 0.000000000000000000e+00 -8.755478499999999609e-02 1.881812199999999963e-02 4.377632365000000192e+00
3.222811656000000191e+00 0.000000000000000000e+00 0.000000000000000000e+00 -1.596242839999999941e+00 2.868554547000000010e+00 0.000000000000000000e+00 -1.130681959999999958e-01 8.129460800000000431e-02 4.333977492999999903e+00
3.347229808999999889e+00 0.000000000000000000e+00 0.000000000000000000e+00 -1.698333615999999990e+00 2.852307462999999821e+00 0.000000000000000000e+00 -3.251887500000000264e-02 -6.030438300000000307e-02 4.346021483000000352e+00
3.082101070999999859e+00 -2.377766053089186995e-24 0.000000000000000000e+00 -1.541050923454481358e+00 2.669177599499997999e+00 -2.067951531382569187e-25 3.601822424790948944e-09 4.774438324834729097e-09 4.936978649000000274e+00
3.143929038000000009e+00 0.000000000000000000e+00 0.000000000000000000e+00 -1.526048405000000052e+00 2.685465177999999842e+00 0.000000000000000000e+00 -6.509230000000000571e-02 -5.347366600000000303e-02 4.835104123999999892e+00
3.020882335000000030e+00 0.000000000000000000e+00 0.000000000000000000e+00 -1.480186999000000059e+00 2.713234630000000092e+00 0.000000000000000000e+00 -1.060214770000000029e-01 -1.007522319999999971e-01 4.815824564999999780e+00
3.037217765999999930e+00 0.000000000000000000e+00 0.000000000000000000e+00 -1.506550210999999972e+00 2.654533685000000087e+00 0.000000000000000000e+00 -1.856681500000000040e-02 3.594174099999999927e-02 4.917000741999999924e+00
3.056884672999999886e+00 0.000000000000000000e+00 0.000000000000000000e+00 -1.469320028999999916e+00 2.592386079999999815e+00 0.000000000000000000e+00 5.443991799999999687e-02 -8.189183499999999616e-02 4.859702194999999669e+00
3.144803839000000156e+00 0.000000000000000000e+00 0.000000000000000000e+00 -1.614280171000000097e+00 2.733555879999999938e+00 0.000000000000000000e+00 -1.263390590000000036e-01 -1.104612569999999933e-01 4.799551164000000369e+00
3.122374586999999924e+00 0.000000000000000000e+00 0.000000000000000000e+00 -1.562098661000000055e+00 2.742622599000000161e+00 0.000000000000000000e+00 -1.651878000000000027e-02 7.050975800000000571e-02 4.953919615000000221e+00
3.009856473000000143e+00 0.000000000000000000e+00 0.000000000000000000e+00 -1.524572861000000001e+00 2.655477185000000073e+00 0.000000000000000000e+00 5.135775699999999694e-02 -7.354208800000000545e-02 5.073695448999999691e+00
3.120563138000000070e+00 0.000000000000000000e+00 0.000000000000000000e+00 -1.592295742999999986e+00 2.694018037999999837e+00 0.000000000000000000e+00 1.413159569999999920e-01 -1.432067690000000115e-01 5.054678065000000053e+00
3.108516546000000158e+00 0.000000000000000000e+00 0.000000000000000000e+00 -1.483466688999999894e+00 2.623029466000000198e+00 0.000000000000000000e+00 1.787970999999999961e-03 1.140878530000000030e-01 4.941433521000000439e+00
3.047813185999999952e+00 0.000000000000000000e+00 0.000000000000000000e+00 -1.600448607999999995e+00 2.629674837000000043e+00 0.000000000000000000e+00 -1.252251960000000108e-01 -8.355899299999999807e-02 4.875718554999999732e+00
2.995204531000000170e+00 0.000000000000000000e+00 0.000000000000000000e+00 -1.553629482999999922e+00 2.650009379000000109e+00 0.000000000000000000e+00 8.339534699999999467e-02 -1.112521679999999985e-01 4.789612004000000312e+00
3.000887673999999894e+00 0.000000000000000000e+00 0.000000000000000000e+00 -1.469337461999999928e+00 2.697818799999999850e+00 0.000000000000000000e+00 -6.935342599999999580e-02 9.686448300000000122e-02 5.061950310000000286e+00
2.993844516999999872e+00 0.000000000000000000e+00 0.000000000000000000e+00 -1.418396044000000078e+00 2.742181823000000129e+00 0.000000000000000000e+00 1.110535369999999938e-01 -9.617895299999999759e-02 4.813303567000000172e+00
3.170778390000000169e+00 0.000000000000000000e+00 0.000000000000000000e+00 -1.624136994999999972e+00 2.604652640999999935e+00 0.000000000000000000e+00 -9.210242400000000218e-02 -1.903475899999999832e-02 4.978349677999999834e+00
3.172045595999999801e+00 0.000000000000000000e+00 0.000000000000000000e+00 -1.599797197000000004e+00 2.627167428999999998e+00 0.000000000000000000e+00 -6.213320499999999691e-02 -5.237832600000000283e-02 4.817653740999999989e+00
3.008960400999999951e+00 0.000000000000000000e+00 0.000000000000000000e+00 -1.513253675999999937e+00 2.741586485000000017e+00 0.000000000000000000e+00 4.730039300000000307e-02 -7.247445399999999371e-02 5.071480066000000342e+00
3.044744757000000135e+00 0.000000000000000000e+00 0.000000000000000000e+00 -1.484303845999999982e+00 2.710943604000000118e+00 0.000000000000000000e+00 -8.993478300000000425e-02 -6.859221399999999857e-02 4.893463846999999589e+00
3.018581723000000050e+00 0.000000000000000000e+00 0.000000000000000000e+00 -1.456401794000000027e+00 2.599831442000000159e+00 0.000000000000000000e+00 4.618425100000000255e-02 -1.459777959999999930e-01 4.841151608999999745e+00
2.991542366000000008e+00 0.000000000000000000e+00 0.000000000000000000e+00 -1.539229286000000085e+00 2.745773720999999945e+00 0.000000000000000000e+00 -4.032301099999999888e-02 -9.003713900000000214e-02 5.002714509999999670e+00
3.166711975000000123e+00 0.000000000000000000e+00 0.000000000000000000e+00 -1.650300652000000090e+00 2.604700035000000025e+00 0.000000000000000000e+00 -3.490581899999999765e-02 1.496782449999999876e-01 4.988521082000000106e+00
3.113233404999999898e+00 2.741431977065687772e-24 0.000000000000000000e+00 -1.556617094454481265e+00 2.696138989499997862e+00 0.000000000000000000e+00 3.601822424875336255e-09 4.774438324538184020e-09 4.986847120000000189e+00
3.198066105000000103e+00 0.000000000000000000e+00 0.000000000000000000e+00 -1.602153656999999898e+00 2.746956645000000030e+00 0.000000000000000000e+00 1.110256710000000063e-01 1.598831599999999895e-02 5.118805317999999716e+00
3.059123388999999804e+00 0.000000000000000000e+00 0.000000000000000000e+00 -1.587974588000000020e+00 2.739947556999999811e+00 0.000000000000000000e+00 -7.075786500000000312e-02 -1.356725759999999892e-01 4.886499913999999833e+00
3.204325004000000199e+00 0.000000000000000000e+00 0.000000000000000000e+00 -1.586973694999999962e+00 2.689785452999999826e+00 0.000000000000000000e+00 -9.147689700000000146e-02 -1.324639760000000110e-01 4.855157809999999685e+00
3.201788214000000021e+00 0.000000000000000000e+00 0.000000000000000000e+00 -1.636006961000000093e+00 2.621010565999999820e+00 0.000000000000000000e+00 -1.104651100000000018e-02 1.062974420000000059e-01 4.976285794999999901e+00
3.108878809000000132e+00 0.000000000000000000e+00 0.000000000000000000e+00 -1.510634218000000084e+00 2.675746804000000090e+00 0.000000000000000000e+00 -7.246607900000000269e-02 -2.795876000000000090e-03 4.981455450000000340e+00
3.138650063000000046e+00 0.000000000000000000e+00 0.000000000000000000e+00 -1.529931504000000109e+00 2.708144765000000120e+00 0.000000000000000000e+00 -1.472584769999999987e-01 -8.841261000000000259e-02 5.062791805999999895e+00
3.055501635000000160e+00 0.000000000000000000e+00 0.000000000000000000e+00 -1.463443001999999993e+00 2.747418199999999811e+00 0.000000000000000000e+00 -1.300569289999999878e-01 -2.996568499999999885e-02 4.866368438000000296e+00
3.188320386000000006e+00 0.000000000000000000e+00 0.000000000000000000e+00 -1.517676581999999996e+00 2.769890954000000072e+00 0.000000000000000000e+00 2.474936999999999970e-02 -7.269365599999999539e-02 5.057569917000000359e+00
3.063893183999999881e+00 0.000000000000000000e+00 0.000000000000000000e+00 -1.499639203999999948e+00 2.754773634999999832e+00 0.000000000000000000e+00 -3.091614700000000146e-02 -4.555517800000000173e-02 4.979359976999999660e+00
3.024736893000000038e+00 0.000000000000000000e+00 0.000000000000000000e+00 -1.593278009000000051e+00 2.645085749000000153e+00 0.000000000000000000e+00 -1.188846860000000033e-01 8.518508399999999425e-02 5.118220667000000113e+00
3.203294877999999901e+00 0.000000000000000000e+00 0.000000000000000000e+00 -1.559461398999999915e+00 2.710803779999999996e+00 0.000000000000000000e+00 -3.502624000000000189e-03 1.449463290000000126e-01 4.981062979999999918e+00
3.113558376999999933e+00 0.000000000000000000e+00 0.000000000000000000e+00 -1.594252210000000058e+00 2.772362608999999978e+00 0.000000000000000000e+00 6.765957999999999868e-03 4.127427699999999811e-02 5.080607342000000415e+00
3.026829130999999951e+00 0.000000000000000000e+00 0.000000000000000000e+00 -1.586705817999999990e+00 2.719364199000000148e+00 0.000000000000000000e+00 -3.564267000000000130e-02 -5.086246700000000148e-02 4.927492177999999612e+00
3.060622284999999998e+00 0.000000000000000000e+00 0.000000000000000000e+00 -1.471449556000000047e+00 2.716065534999999809e+00 0.000000000000000000e+00 6.416878099999999419e-02 -1.391789009999999938e-01 5.013250711000000415e+00
3.047530909999999871e+00 0.000000000000000000e+00 0.000000000000000000e+00 -1.589116991999999895e+00 2.711027469999999884e+00 0.000000000000000000e+00 -3.821191799999999750e-02 -4.899450999999999806e-02 5.133298678000000059e+00
3.080008668000000061e+00 0.000000000000000000e+00 0.000000000000000000e+00 -1.606535454999999946e+00 2.647391441999999984e+00 0.000000000000000000e+00 -1.261387230000000081e-01 -1.099731340000000002e-01 4.978738031999999869e+00
3.096628991999999858e+00 0.000000000000000000e+00 0.000000000000000000e+00 -1.601184477999999967e+00 2.685125875999999856e+00 0.000000000000000000e+00 1.208545550000000024e-01 2.158136000000000169e-03 5.133183053999999856e+00
3.054715848999999928e+00 0.000000000000000000e+00 0.000000000000000000e+00 -1.490332567000000052e+00 2.650380245000000023e+00 0.000000000000000000e+00 8.778168999999999556e-02 2.771346900000000099e-02 5.071758005000000402e+00
3.065200985000000156e+00 0.000000000000000000e+00 0.000000000000000000e+00 -1.579082818999999915e+00 2.730012284999999927e+00 0.000000000000000000e+00 1.447272019999999992e-01 -5.122547699999999843e-02 4.956424572000000417e+00
3.183097950000000065e+00 0.000000000000000000e+00 0.000000000000000000e+00 -1.533731862000000001e+00 2.632757008000000010e+00 0.000000000000000000e+00 -2.554125999999999966e-02 1.715397999999999923e-03 4.857288041000000334e+00
3.144365738999999937e+00 -3.280734721566972725e-24 0.000000000000000000e+00 -1.572183265454481393e+00 2.723100379499997725e+00 0.000000000000000000e+00 3.601822424958053076e-09 4.774438324247511925e-09 5.036715591000000103e+00
3.198927709999999980e+00 0.000000000000000000e+00 0.000000000000000000e+00 -1.523879420999999956e+00 2.691841766000000025e+00 0.000000000000000000e+00 -7.508995599999999937e-02 5.005542000000000324e-02 4.997268698000000064e+00
3.232859930000000048e+00 0.000000000000000000e+00 0.000000000000000000e+00 -1.620987798000000035e+00 2.644131146999999959e+00 0.000000000000000000e+00 -2.713197200000000073e-02 1.071298749999999994e-01 5.167784987000000108e+00
3.058012790999999897e+00 0.000000000000000000e+00 0.000000000000000000e+00 -1.556975441000000071e+00 2.688005763000000048e+00 0.000000000000000000e+00 -1.105724260000000014e-01 -4.100848399999999783e-02 5.140893425999999877e+00
3.226346783999999968e+00 0.000000000000000000e+00 0.000000000000000000e+00 -1.622955235999999912e+00 2.664499467999999816e+00 0.000000000000000000e+00 -1.444224590000000030e-01 9.036247199999999924e-02 4.937570031999999998e+00
3.184047834999999882e+00 0.000000000000000000e+00 0.000000000000000000e+00 -1.647550347999999998e+00 2.757621914000000007e+00 0.000000000000000000e+00 -6.096875400000000000e-02 -8.760889900000000396e-02 5.133360984000000293e+00
3.229142201999999795e+00 0.000000000000000000e+00 0.000000000000000000e+00 -1.571592136999999889e+00 2.684927109000000200e+00 0.000000000000000000e+00 -3.868879499999999805e-02 -1.106097500000000067e-01 5.013435997000000199e+00
3.103767599999999849e+00 0.000000000000000000e+00 0.000000000000000000e+00 -1.491718273000000039e+00 2.650735080000000021e+00 0.000000000000000000e+00 8.191465600000000236e-02 1.330575500000000071e-02 4.922483095999999669e+00
3.074877442000000016e+00 0.000000000000000000e+00 0.000000000000000000e+00 -1.491998860999999899e+00 2.785365081000000131e+00 0.000000000000000000e+00 -6.448807800000000423e-02 -1.048765509999999984e-01 5.002369642999999755e+00
3.230133298000000153e+00 0.000000000000000000e+00 0.000000000000000000e+00 -1.615739110000000034e+00 2.755630494000000041e+00 0.000000000000000000e+00 1.131003289999999994e-01 1.131684849999999992e-01 4.952166070999999725e+00
3.067724472000000091e+00 0.000000000000000000e+00 0.000000000000000000e+00 -1.538864564000000046e+00 2.725165040999999899e+00 0.000000000000000000e+00 4.046025799999999895e-02 -1.245829849999999933e-01 5.098974743000000309e+00
3.141249682000000210e+00 0.000000000000000000e+00 0.000000000000000000e+00 -1.519433953000000059e+00 2.800896092999999976e+00 0.000000000000000000e+00 1.035778249999999984e-01 7.393243900000000257e-02 5.145193941999999687e+00
3.212506579999999889e+00 0.000000000000000000e+00 0.000000000000000000e+00 -1.617496242999999945e+00 2.664421277999999838e+00 0.000000000000000000e+00 -2.794118199999999844e-02 -2.949325900000000084e-02 5.128141473000000339e+00
3.055088419000000055e+00 0.000000000000000000e+00 0.000000000000000000e+00 -1.489828753000000061e+00 2.688118778000000209e+00 0.000000000000000000e+00 6.271197000000000056e-03 -2.988983799999999844e-02 5.018067310000000170e+00
3.138739408999999814e+00 0.000000000000000000e+00 0.000000000000000000e+00 -1.546372601000000069e+00 2.649744767000000056e+00 0.000000000000000000e+00 9.944231400000000387e-02 7.064913000000000443e-02 5.165538144000000109e+00
3.096344224000000089e+00 0.000000000000000000e+00 0.000000000000000000e+00 -1.474724721000000072e+00 2.695154673999999861e+00 0.000000000000000000e+00 -1.125003000000000071e-03 -3.068430000000000116e-02 5.081318498999999989e+00
3.218454062999999810e+00 0.000000000000000000e+00 0.000000000000000000e+00 -1.585708157000000007e+00 2.727416561000000073e+00 0.000000000000000000e+00 8.567708400000000057e-02 -1.111238239999999960e-01 5.099400240999999667e+00
3.151492476000000043e+00 0.000000000000000000e+00 0.000000000000000000e+00 -1.629397602999999917e+00 2.725683092999999779e+00 0.000000000000000000e+00 -1.174877629999999951e-01 -2.111145999999999943e-03 5.026461809999999808e+00
3.139741036999999846e+00 0.000000000000000000e+00 0.000000000000000000e+00 -1.538530149999999930e+00 2.728674076999999976e+00 0.000000000000000000e+00 5.451873000000000309e-03 8.813352500000000422e-02 4.922247010999999617e+00
3.108432468999999809e+00 0.000000000000000000e+00 0.000000000000000000e+00 -1.554192816999999893e+00 2.662675287999999973e+00 0.000000000000000000e+00 -1.001534599999999997e-01 -8.400965900000000042e-02 5.010817573999999830e+00
3.075136994000000179e+00 0.000000000000000000e+00 0.000000000000000000e+00 -1.526536450000000045e+00 2.654029321999999969e+00 0.000000000000000000e+00 1.407214940000000025e-01 1.126288299999999992e-01 5.184334684999999610e+00
