1.621725736921513228e+00 9.363073838790194614e-01 2.088659999999999961e+00 -1.852616888408312862e-05 1.872609999935058944e+00 0.000000000000000000e+00 1.621725736921513228e+00 9.363073838790194614e-01 0.000000000000000000e+00 -1.852616888408312862e-05 1.872609999935058944e+00 2.088659999999999961e+00
1.634549999999999947e+00 8.832100000000000506e-01 2.133640000000000203e+00 -1.625000000000000056e-02 1.829730000000000079e+00 1.010000000000000047e-03 1.566459999999999964e+00 9.152700000000000280e-01 1.064000000000000015e-02 3.984000000000000041e-02 1.803809999999999913e+00 2.115400000000000169e+00
1.531439999999999912e+00 9.551100000000000145e-01 2.074079999999999924e+00 -1.409299999999999997e-01 1.919300000000000006e+00 4.136309999999999931e+00 1.590529999999999999e+00 9.244799999999999685e-01 2.249999999999999830e-03 -9.248000000000000664e-02 1.882989999999999942e+00 2.081459999999999866e+00
1.686660000000000048e+00 8.787500000000000311e-01 2.107520000000000060e+00 4.583999999999999880e-02 1.741710000000000091e+00 4.220309999999999562e+00 1.720429999999999904e+00 8.123200000000000420e-01 4.229309999999999903e+00 3.409999999999999837e-02 1.786149999999999904e+00 2.116220000000000212e+00
1.587900000000000089e+00 9.218800000000000328e-01 2.093799999999999883e+00 -5.791000000000000314e-02 1.852510000000000101e+00 4.181759999999999700e+00 1.594459999999999988e+00 9.560800000000000409e-01 1.472000000000000045e-02 -4.329999999999999821e-02 1.884900000000000020e+00 2.099540000000000184e+00
1.610190000000000010e+00 9.641100000000000225e-01 2.124280000000000168e+00 4.501999999999999752e-02 1.892460000000000031e+00 9.900000000000000813e-03 1.604090000000000016e+00 9.579299999999999482e-01 3.200000000000000153e-03 2.915999999999999842e-02 1.911410000000000053e+00 2.112880000000000091e+00
1.626400000000000068e+00 9.024600000000000399e-01 2.073360000000000092e+00 8.773999999999999855e-02 1.820179999999999909e+00 4.155560000000000365e+00 1.654910000000000103e+00 8.731100000000000527e-01 4.158549999999999969e+00 6.469999999999999363e-02 1.849580000000000002e+00 2.079359999999999875e+00
1.577749999999999986e+00 8.813199999999999923e-01 2.060610000000000053e+00 -1.040800000000000058e-01 1.791050000000000031e+00 4.105640000000000178e+00 1.538869999999999960e+00 8.375099999999999767e-01 4.099009999999999820e+00 -5.584999999999999687e-02 1.833490000000000064e+00 2.044789999999999885e+00
1.642800000000000038e+00 8.577599999999999669e-01 2.109599999999999920e+00 -3.765000000000000291e-02 1.720930000000000071e+00 4.241710000000000313e+00 1.630770000000000053e+00 8.125700000000000145e-01 4.239309999999999690e+00 -3.291999999999999788e-02 1.764680000000000026e+00 2.121329999999999938e+00
1.665929999999999911e+00 8.699500000000000011e-01 2.095380000000000020e+00 7.280000000000000013e-03 1.827080000000000037e+00 1.555999999999999918e-02 1.665869999999999962e+00 8.097900000000000098e-01 4.193800000000000416e+00 4.716000000000000053e-02 1.756229999999999958e+00 2.097770000000000135e+00
1.688879999999999937e+00 9.087100000000000177e-01 2.035550000000000193e+00 1.009700000000000042e-01 1.810389999999999944e+00 4.052450000000000330e+00 1.733260000000000023e+00 8.701299999999999590e-01 4.066270000000000273e+00 6.232000000000000040e-02 1.835930000000000062e+00 2.036739999999999995e+00
1.658959999999999990e+00 9.900499999999999856e-01 2.119610000000000216e+00 2.381000000000000130e-02 1.891710000000000003e+00 9.480000000000000579e-03 1.601809999999999956e+00 9.487999999999999767e-01 1.910000000000000022e-03 9.361999999999999489e-02 1.928020000000000067e+00 2.108179999999999943e+00
1.621609999999999996e+00 9.227999999999999536e-01 2.044360000000000177e+00 1.021000000000000033e-02 1.898689999999999989e+00 2.390000000000000197e-03 1.626489999999999991e+00 9.143599999999999506e-01 4.085580000000000211e+00 -1.175000000000000003e-02 1.869739999999999958e+00 2.046520000000000117e+00
1.611930000000000085e+00 9.637700000000000156e-01 2.061500000000000110e+00 8.089999999999999969e-03 1.861420000000000075e+00 2.939999999999999905e-03 1.596160000000000023e+00 9.798299999999999788e-01 4.122300000000000075e+00 -2.680000000000000090e-03 1.900050000000000017e+00 2.061030000000000140e+00
1.613099999999999978e+00 9.408900000000000041e-01 2.081179999999999808e+00 3.919999999999999873e-02 1.873820000000000041e+00 4.150229999999999642e+00 1.609790000000000054e+00 9.209600000000000009e-01 5.389999999999999826e-03 1.237000000000000079e-02 1.859399999999999942e+00 2.085399999999999920e+00
1.604749999999999899e+00 9.994600000000000151e-01 2.144499999999999851e+00 -5.600999999999999729e-02 1.996510000000000007e+00 4.281920000000000393e+00 1.676989999999999981e+00 9.640900000000000025e-01 3.490000000000000047e-03 6.839999999999999726e-03 1.965149999999999952e+00 2.130199999999999871e+00
1.579769999999999897e+00 9.383599999999999719e-01 2.127619999999999845e+00 -1.095999999999999926e-02 1.921240000000000059e+00 1.090000000000000040e-03 1.568359999999999976e+00 8.952299999999999702e-01 4.271819999999999951e+00 -1.726000000000000104e-02 1.889369999999999994e+00 2.137290000000000134e+00
1.607520000000000060e+00 1.001630000000000020e+00 2.130110000000000170e+00 2.500000000000000052e-04 1.892209999999999948e+00 8.479999999999999691e-03 1.599750000000000005e+00 9.400300000000000322e-01 1.050000000000000065e-02 1.133999999999999939e-02 1.949670000000000014e+00 2.125000000000000000e+00
1.639329999999999954e+00 1.007020000000000026e+00 2.129589999999999872e+00 6.579999999999999738e-02 2.022250000000000103e+00 4.257679999999999687e+00 1.703719999999999901e+00 1.060319999999999929e+00 4.246909999999999741e+00 8.909999999999999518e-03 1.950700000000000101e+00 2.131860000000000088e+00
1.679929999999999923e+00 9.124600000000000488e-01 2.127489999999999881e+00 9.228000000000000091e-02 1.806170000000000053e+00 4.226899999999999658e+00 1.652740000000000098e+00 9.461899999999999755e-01 9.000000000000000567e-05 6.250000000000000000e-02 1.842049999999999965e+00 2.109080000000000066e+00
1.735109999999999930e+00 9.173700000000000188e-01 2.121760000000000090e+00 2.520999999999999977e-02 1.910090000000000066e+00 5.619999999999999996e-03 1.784620000000000095e+00 8.947899999999999743e-01 4.215930000000000177e+00 6.567000000000000615e-02 1.886269999999999891e+00 2.124190000000000023e+00
1.638105693898645576e+00 9.457674583727423423e-01 2.109750000000000014e+00 -1.861221428072118206e-05 1.891529999934863815e+00 0.000000000000000000e+00 1.638105693898645576e+00 9.457674583727423423e-01 0.000000000000000000e+00 -1.861221428072118206e-05 1.891529999934863815e+00 2.109750000000000014e+00
1.653340000000000032e+00 9.511199999999999655e-01 2.150059999999999860e+00 1.597000000000000156e-02 1.885639999999999983e+00 9.379999999999999449e-03 1.634710000000000107e+00 9.369699999999999696e-01 6.080000000000000335e-03 4.644000000000000211e-02 1.882460000000000022e+00 2.141319999999999890e+00
1.527979999999999894e+00 9.705200000000000493e-01 2.121950000000000003e+00 -7.779999999999999589e-03 1.931920000000000082e+00 8.899999999999999491e-04 1.593310000000000004e+00 9.621600000000000152e-01 2.500000000000000052e-04 -7.022000000000000464e-02 1.929610000000000047e+00 2.127040000000000042e+00
1.611760000000000081e+00 9.259399999999999853e-01 2.047870000000000079e+00 -4.546000000000000041e-02 1.905720000000000081e+00 1.510000000000000057e-03 1.574149999999999938e+00 9.018899999999999695e-01 4.082399999999999807e+00 -7.566000000000000503e-02 1.871089999999999920e+00 2.049690000000000012e+00
1.617939999999999934e+00 1.006269999999999998e+00 2.059860000000000024e+00 -1.054699999999999943e-01 2.025580000000000158e+00 4.125910000000000188e+00 1.589499999999999913e+00 1.053439999999999932e+00 4.128199999999999648e+00 -9.474000000000000477e-02 1.979700000000000015e+00 2.072649999999999881e+00
1.613070000000000004e+00 9.466999999999999860e-01 2.048620000000000108e+00 4.775000000000000078e-02 1.933619999999999894e+00 6.000000000000000152e-05 1.620619999999999949e+00 9.626299999999999857e-01 1.930000000000000075e-03 2.195000000000000076e-02 1.915329999999999977e+00 2.044410000000000061e+00
1.672269999999999923e+00 9.545700000000000296e-01 2.145179999999999865e+00 5.972999999999999837e-02 1.870589999999999975e+00 1.089999999999999997e-02 1.671049999999999924e+00 9.608799999999999564e-01 4.292629999999999946e+00 5.079999999999999793e-02 1.890889999999999960e+00 2.145010000000000083e+00
1.676900000000000057e+00 9.683199999999999585e-01 2.149789999999999868e+00 3.797999999999999987e-02 1.944870000000000099e+00 4.304350000000000342e+00 1.671650000000000080e+00 9.845000000000000417e-01 1.107999999999999957e-02 2.365000000000000088e-02 1.950299999999999923e+00 2.144420000000000215e+00
1.630360000000000031e+00 9.947500000000000231e-01 2.083720000000000017e+00 -3.384999999999999815e-02 1.927939999999999987e+00 2.900000000000000017e-04 1.668509999999999938e+00 1.026310000000000056e+00 4.170519999999999783e+00 -5.100000000000000366e-03 1.940720000000000001e+00 2.081929999999999836e+00
1.630619999999999958e+00 9.656299999999999883e-01 2.049949999999999939e+00 -4.859000000000000125e-02 1.923079999999999901e+00 4.094310000000000116e+00 1.669829999999999925e+00 9.222399999999999487e-01 1.000000000000000082e-05 -7.210000000000000263e-03 1.884549999999999947e+00 2.044080000000000119e+00
1.680350000000000010e+00 1.024229999999999974e+00 2.151699999999999946e+00 1.010299999999999948e-01 2.053209999999999980e+00 4.298700000000000188e+00 1.628919999999999924e+00 9.638299999999999645e-01 3.350000000000000113e-03 5.619999999999999996e-02 1.983549999999999924e+00 2.155009999999999870e+00
1.583509999999999973e+00 8.826000000000000512e-01 2.140870000000000051e+00 -1.718000000000000083e-02 1.783849999999999936e+00 4.280240000000000045e+00 1.584770000000000012e+00 9.245600000000000485e-01 3.259999999999999877e-03 -1.731999999999999859e-02 1.807460000000000067e+00 2.141109999999999847e+00
1.692970000000000086e+00 9.616000000000000103e-01 2.082990000000000119e+00 1.797199999999999909e-01 1.957549999999999901e+00 4.149610000000000021e+00 1.773300000000000098e+00 9.959700000000000220e-01 4.149370000000000225e+00 1.169000000000000039e-01 1.924900000000000055e+00 2.075099999999999945e+00
1.618330000000000046e+00 9.010500000000000176e-01 2.085789999999999811e+00 -4.449000000000000177e-02 1.800680000000000058e+00 4.166269999999999918e+00 1.619639999999999969e+00 8.235500000000000043e-01 4.166400000000000325e+00 -5.401000000000000245e-02 1.846629999999999994e+00 2.080950000000000077e+00
1.585369999999999946e+00 9.171799999999999953e-01 2.103590000000000071e+00 -1.943999999999999895e-02 1.857040000000000024e+00 8.880000000000000740e-03 1.529039999999999955e+00 9.220300000000000162e-01 4.191290000000000404e+00 -6.747000000000000219e-02 1.843699999999999894e+00 2.095270000000000188e+00
1.669219999999999926e+00 9.558699999999999974e-01 2.092200000000000060e+00 4.451000000000000095e-02 1.883440000000000003e+00 3.299999999999999982e-04 1.703699999999999992e+00 9.469800000000000439e-01 4.178329999999999878e+00 8.455999999999999628e-02 1.880949999999999900e+00 2.095610000000000195e+00
1.712290000000000090e+00 9.710699999999999887e-01 2.077249999999999819e+00 5.510999999999999927e-02 1.879799999999999915e+00 1.085000000000000027e-02 1.670889999999999986e+00 9.366200000000000081e-01 1.900000000000000105e-04 1.024800000000000016e-01 1.900910000000000100e+00 2.093449999999999811e+00
1.569819999999999993e+00 9.809700000000000086e-01 2.067940000000000111e+00 -2.632999999999999924e-02 1.960020000000000095e+00 4.106700000000000017e+00 1.622980000000000089e+00 9.424599999999999644e-01 1.660000000000000017e-03 -2.370000000000000145e-03 1.906519999999999992e+00 2.062870000000000203e+00
1.561839999999999895e+00 9.203500000000000014e-01 2.111040000000000028e+00 -9.254999999999999338e-02 1.833760000000000057e+00 4.219039999999999679e+00 1.610460000000000003e+00 9.511399999999999855e-01 2.520000000000000104e-03 -4.359999999999999987e-02 1.878160000000000052e+00 2.103790000000000049e+00
1.601539999999999964e+00 9.756399999999999517e-01 2.115590000000000082e+00 2.402999999999999928e-02 1.942020000000000080e+00 4.239340000000000330e+00 1.633899999999999908e+00 1.012029999999999985e+00 4.242110000000000269e+00 -2.697000000000000092e-02 1.894490000000000007e+00 2.135800000000000143e+00
1.564200000000000035e+00 9.355200000000000182e-01 2.153519999999999879e+00 -3.257000000000000173e-02 1.920460000000000056e+00 1.358000000000000006e-02 1.623939999999999939e+00 9.552899999999999725e-01 7.200000000000000453e-04 -8.680999999999999828e-02 1.883650000000000047e+00 2.154209999999999958e+00
1.654495650921309347e+00 9.552175329119928504e-01 2.130850000000000133e+00 -1.869821414434312673e-05 1.910439999934668620e+00 0.000000000000000000e+00 1.654495650921309347e+00 9.552175329119928504e-01 0.000000000000000000e+00 -1.869821414434312673e-05 1.910439999934668620e+00 2.130850000000000133e+00
1.733119999999999994e+00 9.464599999999999680e-01 2.091479999999999784e+00 6.428999999999999992e-02 1.898989999999999956e+00 4.177469999999999573e+00 1.763319999999999999e+00 9.591600000000000126e-01 4.170490000000000030e+00 2.537000000000000019e-02 1.892479999999999940e+00 2.076799999999999979e+00
1.623210000000000042e+00 9.449600000000000222e-01 2.192540000000000155e+00 1.493000000000000056e-02 1.916579999999999950e+00 4.372740000000000293e+00 1.657629999999999937e+00 9.312399999999999567e-01 4.377439999999999998e+00 1.399999999999999877e-04 1.919480000000000075e+00 2.192699999999999871e+00
1.667859999999999898e+00 9.860499999999999821e-01 2.094829999999999970e+00 -3.794999999999999762e-02 1.895960000000000090e+00 2.239999999999999804e-03 1.712089999999999890e+00 1.029360000000000053e+00 4.189860000000000362e+00 1.836000000000000132e-02 1.929920000000000080e+00 2.096519999999999939e+00
1.614330000000000043e+00 9.187600000000000211e-01 2.080680000000000085e+00 -2.042000000000000065e-02 1.844799999999999995e+00 4.159740000000000215e+00 1.627420000000000089e+00 9.475700000000000234e-01 2.900000000000000017e-04 1.875999999999999890e-02 1.867729999999999890e+00 2.077550000000000008e+00
1.609320000000000084e+00 9.454399999999999471e-01 2.129280000000000062e+00 9.150000000000000147e-03 1.929570000000000007e+00 2.109999999999999896e-03 1.643620000000000081e+00 9.665700000000000403e-01 1.399999999999999986e-03 -2.399000000000000091e-02 1.922430000000000083e+00 2.123120000000000118e+00
1.686609999999999943e+00 9.381199999999999539e-01 2.131419999999999870e+00 5.487000000000000210e-02 1.869429999999999925e+00 4.259409999999999918e+00 1.667159999999999975e+00 9.855199999999999516e-01 1.318000000000000074e-02 4.868999999999999717e-02 1.919130000000000003e+00 2.130469999999999864e+00
1.676739999999999897e+00 9.681699999999999751e-01 2.149890000000000079e+00 -7.300000000000000065e-03 1.906479999999999952e+00 4.310030000000000250e+00 1.678469999999999906e+00 9.754399999999999737e-01 1.294999999999999971e-02 -9.499999999999999981e-04 1.931210000000000093e+00 2.171839999999999993e+00
1.607529999999999903e+00 9.414000000000000146e-01 2.148530000000000051e+00 -5.290000000000000431e-03 1.951600000000000001e+00 4.680000000000000132e-03 1.638900000000000023e+00 9.788099999999999579e-01 5.499999999999999681e-03 -1.179000000000000013e-02 1.934129999999999905e+00 2.170160000000000089e+00
1.623899999999999899e+00 9.871199999999999974e-01 2.080649999999999888e+00 1.965000000000000080e-02 1.935279999999999889e+00 4.161249999999999893e+00 1.634830000000000005e+00 9.576900000000000412e-01 1.160000000000000007e-03 7.000000000000000146e-03 1.939889999999999892e+00 2.094250000000000167e+00
1.631029999999999980e+00 1.017179999999999973e+00 2.124659999999999993e+00 3.352000000000000118e-02 2.041040000000000187e+00 4.267210000000000392e+00 1.609550000000000036e+00 9.833600000000000119e-01 1.869999999999999917e-03 -1.354999999999999954e-02 1.992709999999999981e+00 2.140429999999999833e+00
1.702020000000000088e+00 9.836000000000000298e-01 2.129449999999999843e+00 3.090000000000000038e-02 1.851099999999999968e+00 5.989999999999999665e-03 1.653850000000000042e+00 9.354299999999999837e-01 1.047000000000000014e-02 5.831000000000000072e-02 1.915999999999999925e+00 2.123920000000000030e+00
1.599099999999999966e+00 9.778700000000000170e-01 2.152350000000000207e+00 -2.266999999999999918e-02 1.944700000000000095e+00 4.317000000000000171e+00 1.581839999999999913e+00 9.662800000000000278e-01 4.307839999999999669e+00 -7.849999999999999339e-03 1.944960000000000022e+00 2.158409999999999940e+00
1.707310000000000105e+00 9.378499999999999615e-01 2.124950000000000117e+00 2.342999999999999944e-02 1.952229999999999910e+00 2.820000000000000024e-03 1.771500000000000075e+00 9.079099999999999948e-01 4.263080000000000425e+00 9.460000000000000353e-02 1.924009999999999998e+00 2.133989999999999831e+00
1.595960000000000045e+00 9.550100000000000255e-01 2.106720000000000148e+00 -3.463999999999999718e-02 1.917499999999999982e+00 4.207670000000000243e+00 1.575059999999999905e+00 9.655200000000000449e-01 4.194309999999999761e+00 -1.716000000000000164e-02 1.905729999999999924e+00 2.115819999999999812e+00
1.646719999999999962e+00 8.900099999999999678e-01 2.138790000000000191e+00 4.211999999999999772e-02 1.802170000000000050e+00 4.246310000000000251e+00 1.659440000000000026e+00 8.542600000000000193e-01 4.234549999999999592e+00 3.185000000000000331e-02 1.855979999999999963e+00 2.120849999999999902e+00
1.568740000000000023e+00 9.391300000000000203e-01 2.150339999999999918e+00 -1.178700000000000025e-01 1.897359999999999935e+00 4.269899999999999807e+00 1.633040000000000047e+00 9.854800000000000226e-01 1.014999999999999930e-02 -8.813999999999999613e-02 1.922220000000000040e+00 2.122189999999999799e+00
1.677480000000000082e+00 9.276200000000000001e-01 2.107709999999999972e+00 -2.515999999999999834e-02 1.920460000000000056e+00 7.640000000000000090e-03 1.702660000000000062e+00 9.608900000000000219e-01 6.729999999999999871e-03 -3.196999999999999842e-02 1.877490000000000103e+00 2.119040000000000035e+00
1.576079999999999925e+00 9.606799999999999784e-01 2.190059999999999896e+00 -1.245399999999999979e-01 1.946399999999999908e+00 4.362890000000000157e+00 1.616500000000000048e+00 9.508999999999999675e-01 9.209999999999999437e-03 -8.021999999999999964e-02 1.926239999999999952e+00 2.196979999999999933e+00
1.565360000000000085e+00 1.004829999999999890e+00 2.163850000000000051e+00 -1.003700000000000009e-01 1.989770000000000039e+00 4.330029999999999824e+00 1.617720000000000047e+00 9.591300000000000381e-01 3.160000000000000048e-03 -4.640999999999999986e-02 1.953379999999999894e+00 2.165010000000000101e+00
1.650730000000000031e+00 9.208600000000000119e-01 2.174009999999999998e+00 -2.437999999999999889e-02 1.916250000000000009e+00 3.490000000000000047e-03 1.660150000000000015e+00 9.475200000000000289e-01 2.269999999999999882e-03 -4.442000000000000115e-02 1.886209999999999942e+00 2.170729999999999826e+00
1.541049995314650811e+00 8.897300108847773226e-01 2.464149998999997759e+00 -9.369228761414619650e-09 1.779450002772000161e+00 4.932639999000000941e+00 1.541049995926158989e+00 8.897300119439406352e-01 4.348879998999998442e+00 -1.035954346222671447e-08 1.779450001056724462e+00 1.880389999000000811e+00
1.567770000000000108e+00 8.726000000000000423e-01 2.415449999999999875e+00 -3.558999999999999664e-02 1.736320000000000086e+00 4.826939999999999564e+00 1.517700000000000049e+00 8.362899999999999778e-01 4.251820000000000377e+00 9.709999999999999881e-03 1.779570000000000096e+00 1.846240000000000103e+00
1.454809999999999937e+00 8.485899999999999554e-01 2.393110000000000070e+00 1.523000000000000048e-02 1.808580000000000076e+00 5.599999999999999509e-04 1.434290000000000065e+00 8.216599999999999460e-01 4.244439999999999991e+00 -1.648000000000000159e-02 1.764939999999999953e+00 1.832319999999999949e+00
1.517730000000000024e+00 8.966800000000000326e-01 2.457370000000000054e+00 -1.116999999999999937e-02 1.803709999999999924e+00 4.910140000000000171e+00 1.502199999999999980e+00 9.143200000000000216e-01 4.320479999999999876e+00 1.270000000000000078e-03 1.783390000000000031e+00 1.872919999999999918e+00
1.576179999999999914e+00 8.251100000000000101e-01 2.426639999999999908e+00 1.050800000000000067e-01 1.641739999999999977e+00 4.843370000000000175e+00 1.597529999999999895e+00 7.903499999999999970e-01 4.279250000000000220e+00 7.667999999999999816e-02 1.690600000000000103e+00 1.849040000000000017e+00
1.495970000000000022e+00 8.738200000000000411e-01 2.388259999999999827e+00 -1.479100000000000137e-01 1.704909999999999926e+00 4.790009999999999657e+00 1.443380000000000107e+00 8.183500000000000218e-01 4.231300000000000061e+00 -6.660000000000000642e-02 1.784100000000000019e+00 1.825320000000000054e+00
1.563579999999999970e+00 9.419999999999999485e-01 2.481180000000000163e+00 -2.384999999999999967e-02 1.891280000000000072e+00 4.951570000000000249e+00 1.547630000000000061e+00 9.765399999999999636e-01 4.352199999999999847e+00 -8.940000000000000030e-03 1.856880000000000086e+00 1.884630000000000027e+00
1.524599999999999955e+00 8.477099999999999635e-01 2.532399999999999984e+00 -1.831999999999999948e-02 1.776459999999999928e+00 1.799999999999999951e-03 1.543160000000000087e+00 8.205500000000000016e-01 4.469170000000000087e+00 3.789999999999999966e-03 1.735770000000000035e+00 1.938430000000000097e+00
1.620870000000000033e+00 8.381899999999999906e-01 2.524150000000000116e+00 1.143200000000000049e-01 1.670269999999999921e+00 5.046630000000000393e+00 1.670819999999999972e+00 7.557700000000000529e-01 4.450650000000000439e+00 3.474000000000000005e-02 1.743039999999999923e+00 1.927729999999999944e+00
1.578580000000000094e+00 9.253599999999999604e-01 2.470219999999999860e+00 3.996999999999999859e-02 1.871380000000000043e+00 4.934129999999999683e+00 1.572400000000000020e+00 9.715399999999999592e-01 4.368850000000000122e+00 4.696000000000000174e-02 1.792180000000000106e+00 1.878859999999999975e+00
1.426299999999999901e+00 8.436799999999999855e-01 2.446639999999999926e+00 -1.754600000000000048e-01 1.668730000000000047e+00 4.871749999999999581e+00 1.387440000000000007e+00 7.987499999999999600e-01 4.291019999999999612e+00 -1.046699999999999992e-01 1.724280000000000035e+00 1.858440000000000092e+00
1.523770000000000069e+00 8.372899999999999787e-01 2.379049999999999887e+00 -1.959999999999999937e-02 1.760369999999999990e+00 3.899999999999999929e-04 1.549530000000000074e+00 7.792900000000000382e-01 4.229260000000000019e+00 -2.200000000000000133e-03 1.725780000000000092e+00 1.819290000000000074e+00
1.484879999999999978e+00 9.574099999999999833e-01 2.534940000000000193e+00 -5.267999999999999766e-02 1.892230000000000079e+00 5.052130000000000010e+00 1.450199999999999934e+00 9.848799999999999777e-01 4.459240000000000315e+00 6.320000000000000097e-03 1.830480000000000107e+00 1.924330000000000096e+00
1.586119999999999974e+00 8.550999999999999712e-01 2.403630000000000155e+00 1.626199999999999868e-01 1.732949999999999990e+00 4.808379999999999654e+00 1.627380000000000049e+00 8.320800000000000418e-01 4.245040000000000369e+00 1.009800000000000003e-01 1.780869999999999953e+00 1.844559999999999977e+00
1.528589999999999893e+00 8.644399999999999862e-01 2.482629999999999892e+00 -1.128799999999999942e-01 1.722830000000000084e+00 4.970690000000000275e+00 1.490820000000000034e+00 8.567000000000000171e-01 4.388569999999999638e+00 -6.113999999999999990e-02 1.729379999999999917e+00 1.896360000000000046e+00
1.547350000000000003e+00 8.479900000000000215e-01 2.408399999999999874e+00 -6.097000000000000336e-02 1.708450000000000024e+00 4.816440000000000055e+00 1.531139999999999946e+00 8.213399999999999590e-01 4.254920000000000258e+00 -3.819999999999999785e-02 1.717109999999999914e+00 1.824680000000000080e+00
1.519509999999999916e+00 8.694100000000000161e-01 2.524319999999999897e+00 4.180999999999999994e-02 1.754879999999999995e+00 5.064700000000000202e+00 1.551390000000000047e+00 8.478900000000000325e-01 4.471949999999999648e+00 3.609999999999999928e-03 1.809290000000000065e+00 1.941799999999999971e+00
1.481020000000000003e+00 8.703999999999999515e-01 2.432170000000000165e+00 1.666000000000000120e-02 1.818319999999999936e+00 7.479999999999999670e-03 1.455880000000000063e+00 8.429299999999999571e-01 4.310670000000000002e+00 -1.648000000000000159e-02 1.772950000000000026e+00 1.871629999999999905e+00
1.550119999999999942e+00 7.930000000000000382e-01 2.415059999999999985e+00 8.143000000000000238e-02 1.587460000000000093e+00 4.836940000000000239e+00 1.566750000000000087e+00 7.399099999999999566e-01 4.266289999999999694e+00 4.458000000000000157e-02 1.685740000000000016e+00 1.851089999999999902e+00
1.475489999999999968e+00 8.634100000000000108e-01 2.505770000000000053e+00 -6.873999999999999555e-02 1.739330000000000043e+00 4.998020000000000351e+00 1.446900000000000075e+00 8.388799999999999590e-01 4.408079999999999998e+00 -3.434999999999999859e-02 1.787360000000000060e+00 1.920169999999999932e+00
1.543719999999999981e+00 9.432399999999999674e-01 2.490110000000000046e+00 -3.898999999999999688e-02 1.729060000000000041e+00 3.650000000000000033e-03 1.518790000000000084e+00 1.010480000000000045e+00 4.388589999999999769e+00 -5.888999999999999790e-02 1.788620000000000099e+00 1.905440000000000023e+00
1.556619995314694194e+00 8.987100108848005142e-01 2.489039999000000503e+00 -9.369265392422451145e-09 1.797430002771997604e+00 4.982459998999996920e+00 1.556619995926203259e+00 8.987100119439651591e-01 4.392809999000000687e+00 -1.035957662159288367e-08 1.797430001056727900e+00 1.899389998999997609e+00
1.648179999999999978e+00 9.210500000000000353e-01 2.558910000000000018e+00 1.103900000000000020e-01 1.844090000000000007e+00 5.108150000000000190e+00 1.699389999999999956e+00 9.311500000000000332e-01 4.510609999999999786e+00 4.105000000000000315e-02 1.838430000000000009e+00 1.948229999999999906e+00
1.469700000000000006e+00 8.416500000000000092e-01 2.429139999999999855e+00 -1.088299999999999962e-01 1.690390000000000059e+00 4.881409999999999805e+00 1.449710000000000054e+00 7.985200000000000076e-01 4.288909999999999556e+00 -4.920999999999999680e-02 1.766350000000000087e+00 1.861599999999999921e+00
1.563169999999999948e+00 8.354599999999999804e-01 2.427970000000000184e+00 -8.046000000000000374e-02 1.662770000000000081e+00 4.850310000000000343e+00 1.527870000000000061e+00 7.734699999999999909e-01 4.281030000000000335e+00 -2.307999999999999982e-02 1.743900000000000006e+00 1.847110000000000030e+00
1.583760000000000057e+00 9.236199999999999966e-01 2.481230000000000047e+00 -4.214999999999999997e-02 1.855120000000000102e+00 4.966210000000000235e+00 1.590189999999999992e+00 9.673000000000000487e-01 4.388709999999999667e+00 -3.196000000000000230e-02 1.774599999999999955e+00 1.896419999999999995e+00
1.527420000000000000e+00 8.935699999999999754e-01 2.480370000000000186e+00 2.154999999999999971e-02 1.793309999999999960e+00 8.500000000000000611e-03 1.510180000000000078e+00 8.864499999999999602e-01 4.404720000000000191e+00 -3.699999999999999947e-04 1.786059999999999981e+00 1.904430000000000067e+00
1.506739999999999968e+00 8.646599999999999842e-01 2.516239999999999810e+00 -1.314099999999999990e-01 1.729330000000000034e+00 5.062409999999999854e+00 1.453580000000000094e+00 8.246799999999999686e-01 4.459780000000000300e+00 -2.906999999999999862e-02 1.764790000000000081e+00 1.922129999999999894e+00
1.472509999999999986e+00 9.092999999999999972e-01 2.433860000000000134e+00 -9.379999999999999449e-02 1.806179999999999897e+00 4.866109999999999935e+00 1.439910000000000023e+00 8.891299999999999759e-01 4.295550000000000423e+00 -1.039999999999999952e-02 1.823870000000000102e+00 1.857359999999999900e+00
1.624440000000000106e+00 8.829599999999999671e-01 2.538520000000000110e+00 3.756000000000000311e-02 1.845110000000000028e+00 7.289999999999999605e-03 1.641280000000000072e+00 8.594399999999999817e-01 4.454930000000000057e+00 5.786999999999999783e-02 1.812480000000000091e+00 1.932080000000000020e+00
1.528860000000000108e+00 8.896300000000000319e-01 2.484119999999999884e+00 -6.219999999999999835e-03 1.785439999999999916e+00 4.966520000000000046e+00 1.501039999999999930e+00 8.711100000000000509e-01 4.384100000000000108e+00 2.239999999999999804e-03 1.815050000000000052e+00 1.898919999999999941e+00
1.421280000000000099e+00 9.286400000000000210e-01 2.555499999999999883e+00 -1.710099999999999953e-01 1.845650000000000013e+00 5.106379999999999697e+00 1.369250000000000078e+00 9.575099999999999723e-01 4.514459999999999695e+00 -9.667000000000000592e-02 1.800470000000000015e+00 1.942749999999999977e+00
1.595720000000000027e+00 9.785800000000000054e-01 2.492910000000000181e+00 3.427999999999999797e-02 1.955039999999999889e+00 4.977630000000000443e+00 1.612610000000000099e+00 1.030280000000000085e+00 4.386499999999999844e+00 2.571999999999999981e-02 1.857960000000000056e+00 1.896069999999999922e+00
1.533760000000000012e+00 9.547600000000000531e-01 2.533110000000000195e+00 -1.026999999999999962e-02 1.887410000000000032e+00 5.060579999999999856e+00 1.542710000000000026e+00 9.710600000000000342e-01 4.488509999999999778e+00 -2.323000000000000065e-02 1.862780000000000102e+00 1.936609999999999943e+00
1.472050000000000081e+00 8.818599999999999772e-01 2.457209999999999894e+00 -8.287999999999999534e-02 1.753700000000000037e+00 4.913219999999999921e+00 1.458399999999999919e+00 8.639000000000000012e-01 4.328689999999999927e+00 -6.203000000000000180e-02 1.793520000000000003e+00 1.876619999999999955e+00
1.594959999999999933e+00 8.274899999999999478e-01 2.494540000000000202e+00 4.524000000000000243e-02 1.814310000000000089e+00 5.980000000000000072e-03 1.612300000000000066e+00 7.946499999999999675e-01 4.409659999999999691e+00 5.235999999999999682e-02 1.754450000000000065e+00 1.895149999999999890e+00