-2.926054295000000138e+01
-2.907838342000000154e+01
-2.908377606000000171e+01
-2.923375722999999837e+01
-2.926454723999999885e+01
-2.917632910000000024e+01
-2.915870869000000098e+01
-2.918568523000000070e+01
-2.918255803999999998e+01
-2.916198465000000084e+01
-2.921030765000000073e+01
-2.917711260000000095e+01
-2.927362254000000164e+01
-2.921299086999999872e+01
-2.913673889000000017e+01
-2.926668916999999936e+01
-2.921329331000000096e+01
-2.923066045999999929e+01
-2.920401142000000050e+01
-2.927067897999999957e+01
-2.929634619999999856e+01
-2.931486384000000101e+01
-2.926695373000000089e+01
-2.922689323999999900e+01
-2.928819024999999954e+01
-2.927712378000000015e+01
-2.922056030999999976e+01
-2.927731713000000013e+01
-2.925732774000000092e+01
-2.925461823999999922e+01
-2.917515497999999852e+01
-2.925806659999999937e+01
-2.915414142999999925e+01
-2.923132941000000073e+01
-2.928143097999999966e+01
-2.924788201999999870e+01
-2.916989866000000120e+01
-2.924711136999999894e+01
-2.913480659000000017e+01
-2.925851219999999842e+01
-2.918980181999999957e+01
-2.927678650000000005e+01
-2.932092593000000136e+01
-2.924663924000000037e+01
-2.923317456999999919e+01
-2.927440877000000086e+01
-2.926127797999999913e+01
-2.930119619999999969e+01
-2.926769558999999887e+01
-2.924180926000000014e+01
-2.925709289999999996e+01
-2.929045072999999988e+01
-2.925014340999999973e+01
-2.926357696999999902e+01
-2.924289993000000010e+01
-2.923475347999999840e+01
-2.925336061000000143e+01
-2.928579580999999976e+01
-2.925212551999999988e+01
-2.926229346999999947e+01
-2.925967659999999881e+01
-2.924655793999999887e+01
-2.925482988999999989e+01
-2.972101205999999962e+01
-2.967137728000000152e+01
-2.954489526000000055e+01
-2.963669086999999891e+01
-2.946162451000000004e+01
-2.964868892000000145e+01
-2.975483257999999864e+01
-2.963339450999999869e+01
-2.974320299000000034e+01
-2.964260718999999966e+01
-2.954132092000000043e+01
-2.937815893999999872e+01
-2.964323149000000157e+01
-2.950465568999999988e+01
-2.967286766000000142e+01
-2.959328847000000096e+01
-2.968002852000000047e+01
-2.966746700999999931e+01
-2.938558858000000029e+01
-2.963606191999999950e+01
-2.966867769999999993e+01
-2.977484824000000074e+01
-2.970071820000000073e+01
-2.966752969999999934e+01
-2.967595161999999931e+01
-2.968410589999999871e+01
-2.974300866999999826e+01
-2.974897886999999841e+01
-2.965462345999999982e+01
-2.969910104999999945e+01
-2.973623823000000144e+01
-2.960957035999999931e+01
-2.972496096000000065e+01
-2.972566618000000105e+01
-2.965802754999999991e+01
-2.971840407999999911e+01
-2.970512498000000079e+01
-2.966303489999999954e+01
-2.972493560999999929e+01
-2.968349637000000030e+01
-2.972240253000000010e+01
-2.963501566000000054e+01
-2.977715815000000177e+01
-2.973741593000000094e+01
-2.965835440000000034e+01
-2.970396029000000127e+01
-2.968504133000000067e+01
-2.968756941999999910e+01
-2.972024193000000025e+01
-2.969066301000000152e+01
-2.971802532999999968e+01
-2.969219899000000140e+01
-2.973702382999999827e+01
-2.965976373000000166e+01
-2.971053030999999933e+01
-2.973174725000000151e+01
-2.969931980000000138e+01
-2.973782617999999900e+01
-2.969022805999999903e+01
-2.975207252999999952e+01
-2.974922919999999849e+01
-2.973805806000000018e+01
-2.966710095999999908e+01
