1.520004188830492947e-04 -9.199930792879663552e-05 0.000000000000000000e+00 -1.560003915644453615e-04 8.599928971648383670e-05 0.000000000000000000e+00 1.460003687990802485e-04 -8.099933524747314853e-05 0.000000000000000000e+00 -1.430003961176738519e-04 8.699934890669219192e-05 0.000000000000000000e+00
-5.432200000000000223e-02 1.000940000000000024e-01 -7.578300000000000314e-02 -2.084050000000000069e-01 4.049400000000000222e-02 9.241399999999999615e-02 2.489180000000000004e-01 1.662599999999999842e-02 -2.405390000000000028e-01 1.380900000000000009e-02 -1.572139999999999926e-01 2.239079999999999959e-01
-3.590360000000000218e-01 1.966779999999999917e-01 -8.783299999999999441e-02 2.710609999999999964e-01 -2.694369999999999821e-01 1.085610000000000047e-01 -3.550499999999999767e-01 2.586200000000000165e-01 3.636799999999999755e-02 4.430259999999999754e-01 -1.858609999999999984e-01 -5.709600000000000092e-02
2.462030000000000052e-01 3.891569999999999752e-01 -1.498599999999999932e-02 9.698900000000000576e-02 -8.177550000000000097e-01 6.013000000000000116e-03 -1.100700000000000012e-01 9.462080000000000490e-01 7.188999999999999557e-02 -2.331219999999999959e-01 -5.176089999999999858e-01 -6.291700000000000070e-02
-3.706430000000000002e-01 -4.053390000000000049e-01 -6.062000000000000027e-02 3.817329999999999890e-01 3.795220000000000260e-01 8.836499999999999910e-02 -3.997899999999999787e-01 -4.788250000000000006e-01 -1.615149999999999919e-01 3.886990000000000167e-01 5.046429999999999527e-01 1.337689999999999990e-01
1.928500000000000006e-02 -2.532980000000000231e-01 3.874799999999999772e-02 -4.990499999999999936e-01 5.118880000000000097e-01 -2.519599999999999965e-02 5.282810000000000006e-01 -6.900079999999999547e-01 -1.145729999999999943e-01 -4.851599999999999663e-02 4.314180000000000237e-01 1.010209999999999997e-01
4.935390000000000055e-01 -3.475469999999999948e-01 1.871300000000000047e-02 -3.817110000000000225e-01 3.421890000000000209e-01 -9.400999999999999635e-03 4.035070000000000046e-01 -4.463940000000000130e-01 -1.984599999999999906e-02 -5.153349999999999875e-01 4.517519999999999869e-01 1.053399999999999996e-02
-3.781329999999999969e-01 1.019599999999999951e-01 -1.247380000000000017e-01 5.424409999999999510e-01 -1.193940000000000001e-01 6.686999999999999889e-02 -4.691560000000000175e-01 9.133199999999999652e-02 2.636499999999999955e-02 3.048480000000000079e-01 -7.389900000000000635e-02 3.150300000000000322e-02
-1.933080000000000076e-01 8.073550000000000448e-01 8.268200000000000549e-02 7.373200000000000587e-02 -8.399940000000000184e-01 -9.002200000000000479e-02 -1.458830000000000127e-01 9.203160000000000229e-01 1.090939999999999965e-01 2.654580000000000273e-01 -8.876770000000000493e-01 -1.017529999999999962e-01
1.795130000000000059e-01 1.478299999999999927e-02 1.713929999999999898e-01 2.973599999999999854e-02 -4.059389999999999943e-01 -1.767459999999999865e-01 1.765639999999999987e-01 4.238870000000000138e-01 9.444400000000000017e-02 -3.858130000000000170e-01 -3.273000000000000215e-02 -8.909000000000000252e-02
4.577729999999999855e-01 1.851710000000000023e-01 -1.371390000000000109e-01 -3.543080000000000118e-01 -4.227679999999999771e-01 1.987730000000000052e-01 3.227679999999999993e-01 4.777480000000000060e-01 3.421099999999999836e-02 -4.262340000000000018e-01 -2.401520000000000044e-01 -9.584600000000000064e-02
3.574379999999999780e-01 -7.645509999999999806e-01 6.317200000000000593e-02 -7.799899999999999889e-02 6.730969999999999454e-01 -5.421999999999999736e-02 2.040740000000000054e-01 -7.803919999999999746e-01 -1.283140000000000114e-01 -4.835119999999999973e-01 8.718460000000000099e-01 1.193619999999999959e-01
2.215129999999999877e-01 1.018040000000000056e-01 1.418099999999999916e-02 4.441300000000000109e-02 -4.161299999999999721e-02 -1.789400000000000018e-02 -1.581089999999999995e-01 -4.285900000000000126e-02 5.551099999999999784e-02 -1.078179999999999972e-01 -1.733200000000000018e-02 -5.179899999999999782e-02
8.062300000000000022e-02 3.686099999999999793e-02 2.827599999999999905e-02 -1.671600000000000030e-01 1.326950000000000074e-01 -4.017199999999999938e-02 2.014920000000000044e-01 -2.528100000000000139e-02 1.653299999999999909e-02 -1.149540000000000006e-01 -1.442759999999999876e-01 -4.636999999999999629e-03
-1.704259999999999942e-01 -4.891769999999999730e-01 -5.673000000000000265e-02 -5.290000000000000431e-03 8.040999999999999537e-02 7.181700000000000583e-02 -9.392899999999999860e-02 -1.000909999999999994e-01 2.731700000000000100e-02 2.696450000000000236e-01 5.088570000000000038e-01 -4.240300000000000319e-02
4.885630000000000250e-01 -1.924649999999999972e-01 -3.470600000000000074e-02 -9.245899999999999952e-02 3.172220000000000040e-01 4.597400000000000098e-02 1.237270000000000036e-01 -3.546509999999999940e-01 -1.289959999999999996e-01 -5.198310000000000430e-01 2.298929999999999862e-01 1.177290000000000003e-01
-2.431099999999999928e-01 -7.986370000000000413e-01 4.849500000000000338e-02 1.098370000000000041e-01 6.500820000000000487e-01 -5.869100000000000011e-02 -1.085359999999999936e-01 -7.399430000000000174e-01 1.366200000000000053e-02 2.418089999999999962e-01 8.884980000000000100e-01 -3.467000000000000030e-03
8.420999999999999666e-03 -3.722989999999999911e-01 3.134300000000000280e-02 5.739899999999999863e-02 2.994350000000000067e-01 -2.855800000000000005e-02 -1.044910000000000005e-01 -3.093600000000000239e-01 -1.165629999999999999e-01 3.867099999999999704e-02 3.822229999999999794e-01 1.137780000000000041e-01
-4.273540000000000116e-01 -2.946989999999999887e-01 2.667500000000000079e-02 5.426379999999999537e-01 -2.493599999999999983e-02 -1.651100000000000137e-02 -6.553600000000000536e-01 -4.277700000000000252e-02 1.894139999999999990e-01 5.400760000000000005e-01 3.624120000000000119e-01 -1.995780000000000054e-01
8.241700000000000415e-02 -4.006460000000000021e-01 -1.215510000000000063e-01 -4.498260000000000036e-01 9.204700000000000382e-02 1.190729999999999983e-01 5.071219999999999617e-01 -1.075239999999999946e-01 -9.395499999999999685e-02 -1.397130000000000039e-01 4.161230000000000206e-01 9.643300000000000483e-02
-2.417100000000000151e-02 2.060659999999999992e-01 -3.277200000000000252e-02 -2.535450000000000204e-01 2.979999999999999793e-04 3.336100000000000176e-02 2.361769999999999980e-01 1.416800000000000004e-02 1.640099999999999891e-01 4.153899999999999954e-02 -2.205320000000000058e-01 -1.645989999999999953e-01
1.390003870070729175e-04 -8.499936712637308847e-05 0.000000000000000000e+00 -1.430003505827007616e-04 7.699934891429064754e-05 0.000000000000000000e+00 1.270003004994119176e-04 -6.599942176306607090e-05 9.999999999999999547e-07 -1.220003369237944305e-04 7.399944452818983253e-05 -9.999999999999999547e-07
1.261710000000000054e-01 -3.031780000000000030e-01 -1.337999999999999997e-03 1.000920000000000004e-01 -7.472000000000000343e-03 1.543699999999999933e-02 -1.328429999999999889e-01 -3.082000000000000017e-02 -6.971600000000000019e-02 -9.342100000000000404e-02 3.414699999999999958e-01 5.561800000000000077e-02
-1.078009999999999941e-01 -6.480869999999999687e-01 2.855399999999999952e-02 1.600030000000000063e-01 4.805240000000000067e-01 -2.995099999999999846e-02 -1.789429999999999910e-01 -6.248519999999999630e-01 2.483000000000000138e-02 1.267409999999999926e-01 7.924149999999999805e-01 -2.343299999999999897e-02
-3.484680000000000000e-01 -8.991999999999999993e-02 -2.197999999999999954e-02 8.579499999999999627e-02 9.235500000000000653e-02 -2.309800000000000048e-02 -1.206460000000000032e-01 -1.398530000000000051e-01 1.927750000000000019e-01 3.833179999999999921e-01 1.374180000000000124e-01 -1.476969999999999950e-01
-5.397619999999999640e-01 -1.924500000000000169e-02 6.176000000000000066e-03 2.948589999999999822e-01 3.982000000000000296e-03 3.493700000000000278e-02 -4.881320000000000103e-01 -3.639499999999999680e-02 1.083609999999999990e-01 7.330349999999999921e-01 5.165800000000000253e-02 -1.494739999999999958e-01
1.099610000000000032e-01 -5.414820000000000189e-01 9.518000000000000418e-03 -4.437599999999999878e-01 5.225090000000000012e-01 -1.810399999999999857e-02 4.583059999999999912e-01 -6.210459999999999869e-01 -1.115720000000000045e-01 -1.245079999999999937e-01 6.400190000000000046e-01 1.201569999999999999e-01
2.279259999999999897e-01 2.473799999999999957e-02 9.967299999999999771e-02 -5.924890000000000434e-01 -4.871199999999999836e-02 -7.897500000000000353e-02 6.323779999999999957e-01 1.242219999999999991e-01 2.400499999999999856e-02 -2.678150000000000253e-01 -1.002470000000000028e-01 -4.470299999999999968e-02
2.273880000000000068e-01 1.083829999999999932e-01 -6.274499999999999522e-02 7.965400000000000258e-02 2.106179999999999997e-01 5.129299999999999832e-02 -1.136420000000000069e-01 -2.702729999999999855e-01 -2.009930000000000050e-01 -1.933999999999999886e-01 -4.872800000000000048e-02 2.124449999999999950e-01
-3.402569999999999761e-01 -6.264359999999999928e-01 2.275200000000000139e-02 2.212469999999999992e-01 3.836410000000000098e-01 -2.555899999999999839e-02 -3.125839999999999730e-01 -5.684240000000000403e-01 3.680000000000000111e-03 4.315939999999999777e-01 8.112190000000000234e-01 -8.729999999999999696e-04
2.840759999999999952e-01 5.278019999999999934e-01 -4.093700000000000117e-02 -1.716940000000000133e-01 -5.216830000000000078e-01 2.432099999999999887e-02 2.301680000000000115e-01 6.544600000000000417e-01 -4.982400000000000023e-02 -3.425489999999999924e-01 -6.605790000000000273e-01 6.643999999999999906e-02
1.335500000000000020e-01 -3.648989999999999734e-01 -7.073300000000000420e-02 8.671900000000000441e-02 2.777400000000000008e-02 4.979499999999999899e-02 -7.916700000000000126e-02 -1.296009999999999940e-01 -3.214100000000000290e-02 -1.411030000000000062e-01 4.667259999999999742e-01 5.307800000000000018e-02
-6.805500000000000438e-02 7.294299999999999395e-02 -2.500099999999999892e-02 2.412890000000000035e-01 -2.097620000000000040e-01 1.151899999999999973e-02 -2.749219999999999997e-01 1.410089999999999955e-01 -3.932700000000000085e-02 1.016869999999999996e-01 -4.189000000000000015e-03 5.280900000000000177e-02
5.697950000000000514e-01 -1.703939999999999899e-01 -1.051239999999999952e-01 -2.568409999999999860e-01 1.761550000000000060e-01 8.742500000000000271e-02 2.512659999999999894e-01 -3.884020000000000250e-01 1.231400000000000029e-02 -5.642200000000000548e-01 3.826410000000000089e-01 5.383999999999999897e-03
-4.716810000000000169e-01 -3.489260000000000139e-01 -5.797800000000000176e-02 2.949590000000000267e-01 -1.506689999999999974e-01 4.396699999999999914e-02 -3.856120000000000103e-01 1.455780000000000129e-01 8.193999999999999895e-03 5.623340000000000005e-01 3.540170000000000261e-01 5.817000000000000122e-03
-1.034199999999999980e-01 4.282690000000000108e-01 6.112499999999999878e-02 -2.874499999999999972e-02 -3.158699999999999841e-01 -7.392799999999999372e-02 3.410500000000000337e-02 3.064459999999999962e-01 9.016899999999999915e-02 9.805999999999999439e-02 -4.188450000000000228e-01 -7.736600000000000421e-02
1.200859999999999983e-01 -5.474400000000000377e-01 -8.378000000000000030e-03 -3.249369999999999759e-01 1.404759999999999898e-01 1.175700000000000009e-02 4.083680000000000088e-01 -1.700710000000000000e-01 7.066799999999999471e-02 -2.035170000000000035e-01 5.770340000000000469e-01 -7.404600000000000071e-02
5.795420000000000016e-01 1.152689999999999965e-01 1.920530000000000015e-01 -4.593780000000000086e-01 -3.655490000000000128e-01 -1.862419999999999909e-01 4.865030000000000188e-01 3.254839999999999955e-01 -1.448600000000000061e-02 -6.066669999999999563e-01 -7.520399999999999308e-02 8.675000000000000419e-03
6.738300000000000400e-01 -3.030039999999999956e-01 -1.418490000000000029e-01 -4.203729999999999967e-01 1.821579999999999866e-01 1.483520000000000116e-01 3.519680000000000031e-01 -2.934359999999999746e-01 7.831399999999999473e-02 -6.054249999999999909e-01 4.142819999999999836e-01 -8.481700000000000350e-02
3.827999999999999806e-03 -2.945860000000000145e-01 -4.121999999999999970e-02 8.476799999999999613e-02 4.575150000000000050e-01 4.316799999999999804e-02 -8.464900000000000202e-02 -4.748399999999999843e-01 -1.240519999999999956e-01 -3.945999999999999855e-03 3.119109999999999938e-01 1.221040000000000042e-01
-3.665039999999999965e-01 -2.745759999999999867e-01 2.497399999999999967e-02 -2.486000000000000015e-02 3.993599999999999928e-02 -4.117400000000000226e-02 -1.875960000000000127e-01 -4.082299999999999818e-02 1.992949999999999999e-01 5.789600000000000302e-01 2.754630000000000134e-01 -1.830960000000000087e-01
-4.371799999999999992e-02 -3.503939999999999833e-01 7.491399999999999448e-02 1.223240000000000022e-01 9.847499999999999309e-02 -6.430199999999999805e-02 -2.714849999999999763e-01 -9.660799999999999943e-02 1.981600000000000028e-02 1.928779999999999939e-01 3.485269999999999757e-01 -3.042800000000000019e-02
1.390003778967261903e-04 -8.299936713353489994e-05 0.000000000000000000e+00 -1.420003551317453093e-04 7.799935347461682826e-05 0.000000000000000000e+00 1.310003278139195229e-04 -7.199940355756861466e-05 1.999999999999999909e-06 -1.280003505789004310e-04 7.699941721648667279e-05 -1.999999999999999909e-06
-4.171199999999999908e-02 8.286379999999999857e-01 -5.161899999999999822e-02 -6.332000000000000128e-02 -7.159849999999999826e-01 1.835900000000000032e-02 -1.145900000000000044e-02 9.379819999999999824e-01 -5.234899999999999970e-02 1.164919999999999983e-01 -1.050635999999999903e+00 8.561000000000000554e-02
2.511990000000000056e-01 -2.582280000000000131e-01 -4.036900000000000210e-02 5.984799999999999842e-02 1.039700000000000069e-01 2.791599999999999984e-02 -1.172949999999999965e-01 -2.648349999999999871e-01 1.239200000000000024e-02 -1.937520000000000076e-01 4.190920000000000201e-01 6.200000000000000270e-05
-3.319050000000000056e-01 -2.247319999999999873e-01 6.288399999999999546e-02 3.878980000000000206e-01 3.149640000000000217e-01 -7.103399999999999992e-02 -3.876640000000000086e-01 -3.907840000000000202e-01 9.733899999999999497e-02 3.316709999999999936e-01 3.005519999999999858e-01 -8.918800000000000339e-02
3.524100000000000010e-01 -5.935100000000000098e-02 -2.309100000000000041e-02 -2.251440000000000108e-01 3.234399999999999775e-02 2.433899999999999952e-02 3.920159999999999756e-01 -7.878699999999999593e-02 -4.931800000000000073e-02 -5.192809999999999926e-01 1.057939999999999992e-01 4.807100000000000262e-02
-8.755599999999999494e-02 -2.685500000000000040e-02 1.029799999999999986e-02 1.085379999999999956e-01 2.398679999999999979e-01 -7.171000000000000291e-03 -5.246100000000000069e-02 -3.124509999999999788e-01 -9.458600000000000341e-02 3.147799999999999904e-02 9.943699999999999761e-02 9.145999999999999963e-02
2.075740000000000085e-01 -7.258699999999999875e-02 -5.349600000000000188e-02 -2.230880000000000085e-01 3.307889999999999997e-01 5.830400000000000166e-02 3.212450000000000028e-01 -3.685220000000000162e-01 -1.674130000000000063e-01 -3.057309999999999750e-01 1.103200000000000014e-01 1.626049999999999995e-01
-1.895910000000000095e-01 -1.710589999999999888e-01 -1.121100000000000048e-02 -3.653790000000000093e-01 3.826060000000000016e-01 -2.602499999999999952e-02 4.268919999999999937e-01 -3.428499999999999881e-01 2.774899999999999936e-02 1.280779999999999974e-01 1.313030000000000030e-01 9.487000000000000641e-03
1.907530000000000059e-01 -1.313489999999999935e-01 7.718200000000000061e-02 1.976890000000000036e-01 4.029209999999999736e-01 -9.218800000000000605e-02 -1.508259999999999879e-01 -4.504549999999999943e-01 9.954899999999999860e-02 -2.376149999999999929e-01 1.788829999999999865e-01 -8.454399999999999415e-02
7.437100000000000655e-02 -6.102929999999999744e-01 -2.745000000000000044e-03 -3.023410000000000264e-01 3.866280000000000272e-01 4.027300000000000324e-02 2.327529999999999877e-01 -3.333769999999999789e-01 7.836400000000000310e-02 -4.782999999999999925e-03 5.570420000000000371e-01 -1.158919999999999950e-01
-2.434000000000000052e-01 -3.108639999999999737e-01 2.073600000000000096e-02 1.811170000000000002e-01 5.347159999999999691e-01 -3.903399999999999925e-02 -3.419300000000000117e-01 -6.878069999999999462e-01 5.958600000000000008e-02 4.042140000000000177e-01 4.639550000000000063e-01 -4.128799999999999831e-02
1.623989999999999878e-01 3.646400000000000197e-01 -8.637000000000000580e-03 -5.208949999999999969e-01 -3.892199999999999827e-02 8.363999999999999907e-03 5.951570000000000471e-01 1.637579999999999869e-01 -1.559069999999999900e-01 -2.366610000000000102e-01 -4.894760000000000222e-01 1.561800000000000133e-01
-2.384500000000000161e-02 -6.394410000000000371e-01 5.315000000000000280e-02 -2.094199999999999881e-02 4.783819999999999739e-01 -4.996099999999999847e-02 -3.980000000000000248e-04 -5.877959999999999852e-01 1.046460000000000029e-01 4.518599999999999700e-02 7.488550000000000484e-01 -1.078350000000000003e-01
2.039640000000000064e-01 -3.386799999999999811e-01 5.616100000000000259e-02 -9.009000000000000341e-02 5.405109999999999637e-01 -5.606499999999999678e-02 1.631469999999999865e-01 -6.499179999999999957e-01 5.697999999999999940e-03 -2.770210000000000172e-01 4.480870000000000131e-01 -5.793000000000000406e-03
3.628000000000000148e-03 9.770399999999999918e-02 1.345999999999999974e-03 -6.573600000000000276e-02 -1.214770000000000016e-01 -1.812999999999999941e-03 6.262600000000000111e-02 1.404739999999999878e-01 3.007159999999999833e-01 -5.180000000000000143e-04 -1.166999999999999982e-01 -3.002489999999999881e-01
7.763399999999999468e-02 7.394999999999999664e-03 -8.705400000000000638e-02 -3.667000000000000121e-02 2.811629999999999963e-01 9.755800000000000582e-02 6.153900000000000342e-02 -3.777820000000000067e-01 5.643200000000000299e-02 -1.025029999999999969e-01 8.922399999999999776e-02 -6.693499999999999450e-02
-1.181409999999999960e-01 -1.753139999999999976e-01 -1.542999999999999927e-01 2.865880000000000094e-01 3.101650000000000240e-01 1.598299999999999998e-01 -4.705500000000000238e-01 -4.726400000000000046e-01 -3.153079999999999772e-01 3.021039999999999837e-01 3.377879999999999772e-01 3.097779999999999978e-01
-1.684789999999999899e-01 4.432500000000000329e-02 8.041299999999999837e-02 3.923260000000000081e-01 -1.614009999999999889e-01 -6.918000000000000538e-02 -2.921980000000000133e-01 2.667169999999999819e-01 2.724100000000000132e-02 6.835099999999999509e-02 -1.496409999999999962e-01 -3.847400000000000125e-02
-1.470269999999999910e-01 -7.337999999999999905e-03 -1.201239999999999947e-01 1.050330000000000014e-01 -1.717770000000000130e-01 5.684000000000000163e-02 -1.193690000000000029e-01 1.136420000000000069e-01 -2.645000000000000129e-02 1.613640000000000074e-01 6.547300000000000342e-02 8.973499999999999532e-02
-1.517199999999999972e-02 -4.653149999999999786e-01 -1.624799999999999855e-02 -1.099730000000000013e-01 4.518880000000000119e-01 -5.839999999999999922e-04 1.299819999999999864e-01 -4.919919999999999849e-01 -2.178599999999999981e-02 -4.837000000000000154e-03 5.054189999999999516e-01 3.861799999999999955e-02
-2.584440000000000071e-01 3.724299999999999833e-01 7.353000000000000161e-03 1.126469999999999971e-01 -4.354500000000000037e-01 -1.579000000000000108e-03 -1.287699999999999956e-01 4.990760000000000196e-01 -3.010200000000000028e-02 2.745670000000000055e-01 -4.360559999999999992e-01 2.432700000000000140e-02
-1.000004434637179209e-06 -7.687182825738251812e-12 -1.366799999999967520e-02 9.999955653628207000e-07 -7.674853573996178160e-12 -1.366800000000032399e-02 -9.999955653628207000e-07 7.674853573996178160e-12 1.366800000000032399e-02 1.000004440801805167e-06 -9.999923128171742075e-07 1.366800000000023725e-02
5.478399999999999936e-02 2.481450000000000045e-01 -6.435699999999999754e-01 -1.965669999999999917e-01 -1.934609999999999941e-01 -4.021589999999999887e-01 2.886670000000000069e-01 2.723820000000000130e-01 7.245620000000000394e-01 -1.468830000000000136e-01 -3.270660000000000234e-01 3.211680000000000090e-01
5.975479999999999681e-01 -2.841779999999999862e-01 -6.344299999999999939e-02 2.612909999999999955e-01 5.887350000000000083e-01 -5.895449999999999857e-01 -2.686830000000000052e-01 -6.901100000000000012e-01 2.148660000000000014e-01 -5.901560000000000139e-01 3.855540000000000078e-01 4.381209999999999827e-01
1.691000000000000012e-03 -5.215800000000000297e-02 -1.181989999999999985e-01 -7.774599999999999567e-02 5.049100000000000116e-02 8.732600000000000084e-02 1.036740000000000023e-01 -6.895500000000000240e-02 1.836440000000000017e-01 -2.761900000000000119e-02 7.062200000000000422e-02 -1.527709999999999901e-01
4.812569999999999903e-01 2.421550000000000091e-01 -1.249500000000000055e-01 -5.872969999999999580e-01 -5.377900000000000041e-02 3.249529999999999919e-01 6.394940000000000069e-01 9.178799999999999459e-02 -9.136199999999999877e-02 -5.334539999999999837e-01 -2.801640000000000241e-01 -1.086410000000000015e-01
1.101720000000000060e-01 -1.317540000000000100e-01 -6.142210000000000170e-01 1.720869999999999900e-01 3.272289999999999921e-01 -6.881180000000000074e-01 -1.861780000000000102e-01 -2.856520000000000170e-01 5.321090000000000542e-01 -9.608099999999999974e-02 9.017799999999999427e-02 7.702299999999999702e-01
-1.740520000000000123e-01 -5.444399999999999934e-02 -4.642490000000000228e-01 1.387599999999999945e-01 1.473210000000000075e-01 -2.464719999999999966e-01 -1.088589999999999974e-01 -1.649670000000000025e-01 4.945530000000000204e-01 1.441510000000000014e-01 7.209000000000000130e-02 2.161679999999999990e-01
-2.307450000000000057e-01 -2.124689999999999912e-01 5.894580000000000375e-01 1.024079999999999990e-01 1.903110000000000079e-01 3.965839999999999921e-01 -1.048999999999999932e-01 -2.463480000000000114e-01 -4.094119999999999981e-01 2.332380000000000009e-01 2.685060000000000224e-01 -5.766289999999999472e-01
-2.167840000000000045e-01 -1.221900000000000069e-02 1.205940000000000067e-01 -1.569999999999999944e-04 -3.637460000000000138e-01 2.357009999999999939e-01 1.089099999999999964e-02 3.940540000000000154e-01 -1.204820000000000058e-01 2.060500000000000109e-01 -1.808900000000000091e-02 -2.358129999999999948e-01
2.492350000000000121e-01 2.298240000000000005e-01 4.793000000000000038e-02 -2.257730000000000015e-01 -7.277299999999999880e-01 2.941349999999999798e-01 3.032030000000000003e-01 7.474460000000000548e-01 -4.643109999999999737e-01 -3.266649999999999832e-01 -2.495400000000000118e-01 1.222459999999999936e-01
-8.904700000000000115e-02 3.576000000000000012e-02 -3.689060000000000117e-01 5.314449999999999452e-01 9.222500000000000142e-02 1.237319999999999948e-01 -6.173229999999999551e-01 -5.631200000000000094e-02 2.000429999999999986e-01 1.749249999999999972e-01 -7.167199999999999960e-02 4.513099999999999751e-02
-4.418830000000000258e-01 -3.036079999999999890e-01 1.597989999999999966e-01 -2.863080000000000069e-01 5.071069999999999744e-01 -4.787989999999999746e-01 2.368609999999999882e-01 -4.934689999999999910e-01 -1.353239999999999998e-01 4.913299999999999890e-01 2.899700000000000055e-01 4.543249999999999789e-01
3.075680000000000081e-01 -7.100290000000000212e-01 2.104449999999999932e-01 6.670600000000000140e-02 3.334909999999999819e-01 5.486159999999999926e-01 1.364999999999999894e-03 -3.737619999999999831e-01 -4.031770000000000076e-01 -3.756390000000000007e-01 7.502999999999999670e-01 -3.558839999999999781e-01
1.657609999999999917e-01 -4.465250000000000052e-01 -3.380380000000000051e-01 -4.571709999999999940e-01 7.235479999999999690e-01 -1.646559999999999968e-01 5.268620000000000525e-01 -8.824210000000000109e-01 3.016699999999999937e-01 -2.354519999999999946e-01 6.053990000000000204e-01 2.010240000000000082e-01
-7.087699999999999556e-02 5.204130000000000145e-01 1.450599999999999945e-01 1.404219999999999913e-01 -5.682190000000000296e-01 1.852979999999999905e-01 -1.708959999999999924e-01 6.416370000000000129e-01 -2.098619999999999930e-01 1.013509999999999966e-01 -5.938309999999999977e-01 -1.204960000000000059e-01
1.003399999999999952e-02 3.476029999999999953e-01 -5.148479999999999723e-01 1.309399999999999974e-02 -7.459949999999999637e-01 -5.691119999999999512e-01 -7.007800000000000140e-02 7.956879999999999509e-01 1.952419999999999989e-01 4.694899999999999768e-02 -3.972959999999999825e-01 8.887190000000000367e-01
-1.141179999999999972e-01 -1.446630000000000138e-01 4.730739999999999945e-01 8.352999999999999314e-02 5.201040000000000108e-01 3.773170000000000135e-01 -1.332450000000000023e-01 -5.887289999999999468e-01 -3.782269999999999799e-01 1.638330000000000064e-01 2.132880000000000054e-01 -4.721650000000000014e-01
3.371020000000000127e-01 -3.509360000000000257e-01 2.409020000000000050e-01 1.061689999999999995e-01 1.605360000000000120e-01 -4.570910000000000251e-01 -1.023759999999999948e-01 -2.481099999999999972e-01 2.038790000000000047e-01 -3.408950000000000036e-01 4.385100000000000109e-01 1.230999999999999976e-02
5.754100000000000187e-02 5.435860000000000136e-01 1.574899999999999911e-01 -4.255650000000000266e-01 2.309640000000000026e-01 1.215379999999999933e-01 4.478269999999999751e-01 -2.077769999999999895e-01 -5.386099999999999915e-02 -7.980299999999999894e-02 -5.667729999999999713e-01 -2.251670000000000060e-01
-2.341159999999999908e-01 -4.703309999999999991e-01 1.021139999999999964e-01 3.070860000000000256e-01 6.782030000000000003e-01 4.198600000000000110e-01 -2.859099999999999975e-01 -8.102230000000000265e-01 -1.222860000000000058e-01 2.129389999999999894e-01 6.023509999999999698e-01 -3.996890000000000165e-01
-2.270689999999999931e-01 2.821819999999999884e-01 1.775650000000000006e-01 1.020100000000000000e-02 -4.579150000000000165e-01 -1.489599999999999952e-02 -3.978399999999999992e-02 5.279049999999999576e-01 3.787999999999999701e-02 2.566510000000000180e-01 -3.521719999999999851e-01 -2.005480000000000040e-01
-1.165990315461104888e-13 -2.019554807159593641e-13 -3.629999999999999872e-04 -1.162778220928154416e-13 -2.013991295294140240e-13 -3.620000000000000171e-04 1.000000116599031605e-06 2.080584603283869910e-13 3.629999999996787923e-04 -9.999998837221778095e-07 1.952961499169863972e-13 3.620000000003212120e-04
4.638999999999999894e-03 7.840800000000000547e-02 -6.519400000000000195e-02 -5.159400000000000097e-02 1.410000000000000120e-04 1.969410000000000049e-01 2.811900000000000163e-02 1.203199999999999929e-02 -1.081349999999999950e-01 1.883699999999999958e-02 -9.058099999999999485e-02 -2.361200000000000104e-02
1.991600000000000037e-01 -2.115970000000000073e-01 -1.968530000000000002e-01 3.757190000000000252e-01 4.815650000000000208e-01 -3.783020000000000271e-01 -3.954980000000000162e-01 -5.776310000000000056e-01 4.726139999999999786e-01 -1.793810000000000127e-01 3.076630000000000198e-01 1.025409999999999933e-01
9.851699999999999346e-02 3.394550000000000067e-01 -6.011119999999999797e-01 5.856499999999999900e-02 -2.268400000000000138e-01 -4.910410000000000053e-01 -4.803700000000000331e-02 3.063629999999999964e-01 4.826880000000000059e-01 -1.090450000000000030e-01 -4.189780000000000171e-01 6.094650000000000345e-01
-1.432700000000000085e-01 2.905030000000000112e-01 2.692200000000000149e-02 3.229759999999999853e-01 -7.784450000000000536e-01 1.970540000000000069e-01 -3.629939999999999833e-01 8.332469999999999599e-01 -2.129050000000000109e-01 1.832880000000000065e-01 -3.453049999999999731e-01 -1.107099999999999924e-02
3.082050000000000067e-01 4.499299999999999827e-02 4.220050000000000190e-01 1.069770000000000026e-01 -2.469459999999999988e-01 -1.324120000000000019e-01 -9.041599999999999637e-02 2.557719999999999994e-01 -2.621470000000000189e-01 -3.247659999999999991e-01 -5.381899999999999878e-02 -2.744699999999999918e-02
2.900730000000000253e-01 -8.637100000000000333e-02 3.210509999999999753e-01 1.875870000000000037e-01 -1.232199999999999962e-01 -9.200200000000000045e-02 -1.517429999999999890e-01 9.982000000000000595e-02 -1.703770000000000007e-01 -3.259159999999999835e-01 1.097719999999999946e-01 -5.867200000000000193e-02
5.706799999999999651e-01 -4.320189999999999864e-01 -2.938000000000000056e-01 1.083810000000000051e-01 3.198469999999999924e-01 -3.181229999999999891e-01 -9.669300000000000117e-02 -3.725129999999999830e-01 2.541220000000000145e-01 -5.823679999999999968e-01 4.846849999999999770e-01 3.578009999999999802e-01
1.955719999999999958e-01 -1.936000000000000004e-03 -2.142340000000000078e-01 -2.066600000000000034e-02 7.996000000000000330e-02 -1.494129999999999903e-01 7.400500000000000134e-02 -1.053919999999999996e-01 2.542039999999999855e-01 -2.489109999999999934e-01 2.736799999999999997e-02 1.094429999999999986e-01
-1.714000000000000029e-03 -2.455400000000000083e-01 -8.554900000000000004e-02 -3.593640000000000168e-01 3.485329999999999817e-01 1.478150000000000019e-01 3.886270000000000002e-01 -4.048019999999999952e-01 1.549700000000000036e-02 -2.754900000000000057e-02 3.018089999999999939e-01 -7.776299999999999879e-02
-7.513999999999999846e-02 -2.375039999999999929e-01 4.430120000000000169e-01 3.137539999999999774e-01 1.045719999999999983e-01 7.215399999999999592e-01 -3.390079999999999760e-01 -9.958799999999999597e-02 -7.542299999999999560e-01 1.003939999999999971e-01 2.325190000000000035e-01 -4.103229999999999933e-01
3.555510000000000059e-01 -5.985399999999999748e-02 -3.169489999999999807e-01 -2.171109999999999984e-01 -3.702340000000000075e-01 -1.222550000000000026e-01 1.819399999999999906e-01 4.024469999999999992e-01 2.080940000000000012e-01 -3.203799999999999981e-01 2.764000000000000137e-02 2.311110000000000109e-01
7.559599999999999653e-02 -3.419780000000000042e-01 7.581899999999999751e-02 -1.257260000000000044e-01 3.252269999999999883e-01 4.123839999999999728e-01 7.292500000000000371e-02 -3.693210000000000104e-01 -3.805060000000000109e-01 -2.279499999999999929e-02 3.860720000000000263e-01 -1.076970000000000011e-01
-2.698769999999999780e-01 -3.384400000000000186e-01 -1.623660000000000103e-01 3.766669999999999741e-01 6.005899999999999572e-01 1.386380000000000112e-01 -4.234530000000000238e-01 -6.478359999999999674e-01 1.599849999999999883e-01 3.166629999999999723e-01 3.856870000000000021e-01 -1.362559999999999882e-01