-5.809836102399999618e+02
-5.810501780099999678e+02
-5.810548124800000096e+02
-5.809626747700000351e+02
-5.810056823700000450e+02
-5.783610815900000262e+02
-5.783265747799999872e+02
-5.783516488999999865e+02
-5.783133102699999881e+02
-5.783865952600000355e+02
-5.783513509900000145e+02
-5.783401858800000355e+02
-5.783404977500000541e+02
-5.783869315900000174e+02
-5.782783189499999708e+02
