-2.271739999999999871e-01 1.309089999999999976e-01 0.000000000000000000e+00 1.258090000000000042e-01 -7.288899999999999546e-02 1.132679999999999937e-01 1.258090000000000042e-01 -7.288899999999999546e-02 -1.132679999999999937e-01 -1.580099999999999907e-02 9.233999999999999153e-03 0.000000000000000000e+00 -3.289632999999999807e+00 1.898411000000000071e+00 1.201017000000000001e+00 -3.289633999999999947e+00 1.898409999999999931e+00 -1.201016000000000084e+00 1.964199999999999974e-02 -3.514556999999999931e+00 2.203999999999999796e-03 1.964499999999999927e-02 -3.514555999999999791e+00 -2.203000000000000097e-03 8.851199999999999346e-02 5.410199999999999732e-02 -4.498300000000000215e-02 8.851199999999999346e-02 5.410299999999999832e-02 4.498400000000000315e-02 -3.112999999999999882e-03 -1.028820000000000012e-01 -4.498599999999999821e-02 -3.112000000000000183e-03 -1.028820000000000012e-01 4.498599999999999821e-02 1.470499999999999932e-02 1.320799999999999925e-02 -3.679199999999999832e-02 1.470300000000000079e-02 1.320999999999999952e-02 3.679199999999999832e-02 -7.762800000000000256e-02 4.423200000000000048e-02 2.035299999999999956e-02 -7.763100000000000556e-02 4.422899999999999748e-02 -2.035299999999999956e-02 3.054912999999999990e+00 1.740291000000000032e+00 2.203000000000000097e-03 3.054912999999999990e+00 1.740293000000000090e+00 -2.203000000000000097e-03 -2.345200000000000062e-02 1.297199999999999916e-02 9.962119999999999864e-01 -2.345300000000000162e-02 1.297099999999999989e-02 -9.962109999999999577e-01 -4.558000000000000419e-03 -1.820000000000000090e-02 -3.679099999999999732e-02 -4.556000000000000154e-03 -1.820000000000000090e-02 3.679099999999999732e-02 3.495375999999999816e+00 -2.018810999999999911e+00 0.000000000000000000e+00 -1.361099999999999983e-02 7.033000000000000189e-03 0.000000000000000000e+00 -3.158729999999999816e+00 -1.772942000000000018e+00 0.000000000000000000e+00 1.538300000000000084e-02 4.801500000000000212e-02 0.000000000000000000e+00 8.432000000000000259e-03 3.509954000000000018e+00 9.999999999999999547e-07 -3.553999999999999868e-03 -1.108190000000000008e-01 0.000000000000000000e+00 -3.034041999999999906e+00 -1.762359999999999927e+00 0.000000000000000000e+00 9.545499999999999818e-02 5.833699999999999997e-02 9.999999999999999547e-07 2.398399999999999838e-02 1.298850000000000005e-01 9.999999999999999547e-07 4.041199999999999654e-02 2.018599999999999908e-02 -9.999999999999999547e-07 9.049599999999999311e-02 -5.279099999999999765e-02 0.000000000000000000e+00 2.880000000000000181e-03 -2.203999999999999796e-03 0.000000000000000000e+00 -4.451200000000000295e-02 3.622555000000000192e+00 9.999999999999999547e-07 -3.440399999999999708e-02 -3.650699999999999779e-02 0.000000000000000000e+00 3.109236000000000111e+00 -1.795652000000000026e+00 0.000000000000000000e+00 -5.706100000000000061e-02 3.235600000000000281e-02 0.000000000000000000e+00 -9.926899999999999613e-02 -8.555400000000000504e-02 -9.999999999999999547e-07 3.944999999999999722e-03 -4.492800000000000266e-02 9.999999999999999547e-07 -7.269210000000000393e-01 4.194919999999999760e-01 -9.999999999999999547e-07 6.639699999999999769e-02 -1.006437999999999944e+00 -9.999999999999999547e-07 -4.088499999999999912e-01 -4.085119999999999862e-01 4.255300000000000193e-01 -6.264999999999999736e-03 -8.544720000000000093e-01 0.000000000000000000e+00 -4.088510000000000200e-01 -4.085130000000000150e-01 -4.255309999999999926e-01 -1.985870000000000135e-01 1.139030000000000042e-01 0.000000000000000000e+00 -2.263330000000000064e-01 4.759760000000000102e-01 4.803330000000000100e-01 -2.806600000000000067e-02 -2.237499999999999906e-02 0.000000000000000000e+00 -2.263340000000000074e-01 4.759769999999999834e-01 -4.803319999999999812e-01 -1.983189999999999953e-01 1.150219999999999992e-01 -9.999999999999999547e-07 -5.248460000000000347e-01 -4.186700000000000144e-02 4.803319999999999812e-01 4.976000000000000388e-03 3.548799999999999871e-02 0.000000000000000000e+00 -5.248469999999999525e-01 -4.186800000000000244e-02 -4.803319999999999812e-01 -1.232800000000000042e-02 -2.035959999999999992e-01 -9.999999999999999547e-07 6.127799999999999914e-02 -2.070170000000000066e-01 -3.814499999999999835e-02 3.178399999999999975e-02 2.926000000000000129e-02 9.999999999999999547e-07 6.127900000000000014e-02 -2.070160000000000056e-01 3.814499999999999835e-02 3.579999999999999849e-02 -2.106999999999999845e-02 0.000000000000000000e+00 5.224999999999999610e-03 -2.831000000000000183e-03 -3.165799999999999864e-02 3.720199999999999896e-02 -2.188199999999999867e-02 0.000000000000000000e+00 5.228000000000000008e-03 -2.831000000000000183e-03 3.165799999999999864e-02 9.053290000000000504e-01 4.458670000000000133e-01 9.999999999999999547e-07 1.489759999999999973e-01 5.583289999999999642e-01 4.255349999999999966e-01 7.373809999999999532e-01 4.327889999999999793e-01 -9.999999999999999547e-07 1.489749999999999963e-01 5.583310000000000217e-01 -4.255329999999999946e-01 3.446710000000000051e-01 -1.993949999999999889e-01 4.433300000000000018e-01 -3.727199999999999958e-02 2.170499999999999860e-02 -9.999999999999999547e-07 3.446739999999999804e-01 -1.993939999999999879e-01 -4.433300000000000018e-01 1.703220000000000012e-01 1.125270000000000020e-01 -9.999999999999999547e-07 2.098899999999999932e-01 5.061700000000000227e-02 -3.814599999999999935e-02 -9.289000000000000382e-03 -4.209799999999999653e-02 0.000000000000000000e+00 2.098889999999999922e-01 5.061800000000000327e-02 3.814599999999999935e-02
1.596699999999999856e-02 3.723400000000000321e-02 -1.624990000000000046e-01 1.184840000000000060e-01 -7.139399999999999913e-02 1.547080000000000122e-01 2.384400000000000061e-02 1.073699999999999932e-01 2.475400000000000170e-02 7.690000000000000438e-04 1.193899999999999996e-02 -2.388600000000000098e-02 -3.279571999999999932e+00 1.887065999999999910e+00 1.214922000000000057e+00 7.889999999999999878e-04 -4.573999999999999941e-03 -9.586409999999999654e-01 1.433899999999999932e-02 -3.507308999999999788e+00 -4.235599999999999782e-02 1.658099999999999852e-02 8.246599999999999764e-02 4.481099999999999667e-02 6.394500000000000184e-02 1.315700000000000029e-02 9.625740000000000407e-01 7.093999999999999612e-03 -1.938199999999999992e-02 -9.613110000000000266e-01 1.197900000000000006e-02 -7.223400000000000654e-02 -1.008146999999999904e+00 1.081999999999999976e-02 -4.296999999999999605e-03 1.004283999999999955e+00 3.329200000000000215e-02 5.261400000000000104e-02 6.331999999999999955e-03 -5.838999999999999573e-03 3.986900000000000166e-02 -3.311000000000000141e-03 -3.558100000000000152e-02 1.823800000000000074e-02 2.918000000000000021e-03 2.480800000000000019e-02 -1.655500000000000027e-02 -2.544999999999999953e-03 3.046527999999999903e+00 1.742423000000000055e+00 3.918200000000000155e-02 -6.039400000000000324e-02 -5.408500000000000113e-02 -3.103300000000000156e-02 -3.998700000000000171e-02 2.521199999999999830e-02 2.417000000000000051e-02 -9.875000000000000097e-03 7.721999999999999698e-03 -2.250100000000000017e-02 -2.819599999999999884e-02 -5.542899999999999910e-02 -4.447099999999999664e-02 -3.679799999999999738e-02 -1.538699999999999964e-02 4.610199999999999715e-02 3.247333999999999943e+00 -1.942944999999999922e+00 -1.222064000000000039e+00 -3.532699999999999729e-02 8.660500000000000143e-02 9.607480000000000464e-01 -7.696400000000000463e-02 3.556252999999999886e+00 2.482300000000000131e-02 4.401399999999999757e-02 -1.175790000000000030e-01 -1.945500000000000007e-02 3.098209000000000213e+00 1.755759000000000070e+00 1.050599999999999971e-02 -1.030500000000000027e-01 -7.074800000000000533e-02 -1.055000000000000035e-02 -3.092575000000000074e+00 -1.751327000000000078e+00 6.011999999999999983e-03 3.142768999999999924e+00 -1.710024999999999906e+00 -1.408300000000000003e-02 1.099900000000000010e-02 1.507499999999999986e-02 1.723900000000000085e-02 -6.072400000000000020e-02 -3.834499999999999714e-02 -1.841200000000000128e-02 -3.096331000000000166e+00 -1.824383000000000088e+00 -2.031700000000000172e-02 7.373200000000000587e-02 3.575950999999999880e+00 2.014600000000000071e-02 1.232410000000000033e-01 9.156499999999999362e-02 2.146899999999999850e-02 -3.068407000000000107e+00 -1.748853999999999909e+00 -2.376999999999999946e-02 4.337699999999999889e-02 -6.250600000000000600e-02 -1.693999999999999976e-03 1.677599999999999925e-02 2.188299999999999967e-02 1.317999999999999944e-03 -3.764399999999999691e-02 5.559299999999999659e-02 1.597300000000000109e-02 3.155999999999999778e-02 -1.340900000000000078e-02 -1.951900000000000163e-02 -2.035220000000000085e-01 5.618200000000000277e-02 4.253689999999999971e-01 3.783520000000000216e-01 -2.240679999999999894e-01 -4.135460000000000247e-01 2.697419999999999818e-01 -2.597050000000000192e-01 -4.756079999999999752e-01 -5.353000000000000119e-02 2.423859999999999904e-01 4.564860000000000029e-01 4.539999999999999765e-03 -4.183419999999999916e-01 4.780110000000000192e-01 -1.179700000000000019e-02 4.470430000000000237e-01 -4.569940000000000113e-01 1.302129999999999954e-01 2.450819999999999943e-01 9.225299999999999612e-01 -6.746900000000000119e-02 1.975800000000000056e-01 -3.503799999999999970e-02 3.537270000000000136e-01 2.049700000000000133e-01 -9.261190000000000255e-01 -2.632939999999999725e-01 -1.260550000000000004e-01 3.545100000000000334e-02 -1.421930000000000138e-01 -2.377060000000000006e-01 2.599999999999999881e-03 4.231999999999999651e-03 -4.140530000000000044e-01 -6.707000000000000288e-03 -1.801570000000000116e-01 -6.173000000000000015e-02 5.880999999999999943e-03 8.599299999999999999e-02 -1.901259999999999895e-01 2.051299999999999998e-02 2.178680000000000061e-01 -4.407799999999999913e-02 -6.187999999999999924e-03 4.828199999999999853e-02 2.446600000000000164e-02 -2.038600000000000134e-02 -1.314629999999999965e-01 -1.506389999999999951e-01 3.025500000000000064e-02 -3.520130000000000203e-01 2.088780000000000081e-01 -2.572000000000000067e-03 6.709199999999999886e-02 1.899319999999999897e-01 -3.237899999999999806e-02 -3.537819999999999854e-01 2.096169999999999978e-01 4.296999999999999605e-03 5.056000000000000494e-01 1.738800000000000068e-02 -4.750759999999999983e-01 -2.331769999999999954e-01 -7.939699999999999536e-02 -5.355189999999999673e-01 2.159949999999999926e-01 6.386600000000000610e-02 4.790369999999999906e-01 -3.897329999999999961e-01 -2.170289999999999997e-01 5.335830000000000295e-01 -9.076700000000000046e-02 2.205459999999999920e-01 1.418999999999999906e-03 -3.972300000000000136e-02 2.505299999999999888e-02 -2.945100000000000148e-02 -2.267019999999999869e-01 -4.282400000000000095e-02 -3.383999999999999855e-03 -3.977399999999999686e-02 2.511199999999999891e-02 3.178399999999999975e-02 1.332929999999999948e-01 5.960700000000000026e-02 5.664999999999999897e-03 2.093019999999999881e-01 2.210700000000000165e-02 -3.512699999999999850e-02 -4.063999999999999904e-03 -2.437800000000000036e-02 -6.257000000000000409e-03 4.951999999999999805e-03 -5.291699999999999876e-02 3.504399999999999876e-02
-9.928399999999999725e-02 5.705799999999999761e-02 -1.728300000000000114e-01 1.026360000000000050e-01 -5.951800000000000146e-02 1.648620000000000085e-01 8.900999999999999190e-03 -5.041999999999999607e-03 -9.400000000000000369e-03 -1.246700000000000065e-02 7.957999999999999796e-03 2.257899999999999838e-02 -3.315944000000000003e+00 1.913588000000000067e+00 1.231783999999999990e+00 -3.714200000000000140e-02 2.057900000000000007e-02 -9.629020000000000357e-01 -2.458000000000000115e-03 -3.554689000000000210e+00 -6.935000000000000192e-03 1.755999999999999965e-03 1.427100000000000070e-02 1.004700000000000037e-02 3.128384000000000054e+00 1.780709000000000097e+00 -9.289999999999999647e-03 -1.308999999999999921e-02 -2.680499999999999897e-02 1.914400000000000129e-02 2.160899999999999974e-02 -3.599085999999999785e+00 -9.287000000000000116e-03 1.614000000000000157e-02 2.554299999999999973e-02 1.914099999999999829e-02 3.053099999999999911e-02 3.034799999999999998e-02 -1.782100000000000004e-02 3.060670000000000002e+00 1.791069000000000022e+00 2.382400000000000143e-02 -3.105039999999999800e+00 1.792068999999999912e+00 1.075999999999999917e-03 3.177300000000000263e-02 -1.894500000000000003e-02 -1.485999999999999908e-03 3.078596999999999806e+00 1.779487000000000041e+00 -6.937999999999999723e-03 -1.023100000000000051e-02 -8.829999999999999308e-03 1.004900000000000064e-02 -2.708599999999999897e-02 1.507400000000000059e-02 2.155800000000000077e-02 -3.071263000000000076e+00 1.772607999999999961e+00 -1.913199999999999970e-02 -1.149400000000000074e-02 -4.050000000000000128e-02 -1.781900000000000150e-02 -2.119599999999999956e-02 -3.544871999999999801e+00 2.382000000000000089e-02 3.265133000000000063e+00 -1.885920999999999959e+00 -1.194191999999999920e+00 -2.182399999999999965e-02 1.173000000000000084e-02 9.372200000000000530e-01 -6.661300000000000554e-02 -3.934599999999999903e-02 2.518799999999999858e-02 -7.731000000000000025e-03 -5.070999999999999987e-03 -2.170000000000000054e-02 1.252000000000000075e-03 3.516083000000000069e+00 -1.049899999999999965e-02 8.040000000000000271e-04 -6.791300000000000114e-02 -9.565999999999999850e-03 -3.042946000000000151e+00 -1.759230999999999989e+00 -1.050099999999999992e-02 6.046399999999999691e-02 3.308900000000000036e-02 -9.563999999999999585e-03 -1.040300000000000079e-02 3.551599999999999896e-02 1.734000000000000125e-02 -1.621000000000000045e-03 -4.892999999999999780e-03 -2.011100000000000040e-02 3.059399999999999967e-02 -1.824399999999999980e-02 -9.933889999999999665e-01 -7.907000000000000833e-03 3.980000000000000031e-03 9.801199999999999912e-01 2.349999999999999930e-04 7.816499999999999837e-02 2.518099999999999852e-02 1.999999999999999909e-06 1.003399999999999952e-02 -2.169400000000000148e-02 6.661499999999999366e-02 -3.906400000000000150e-02 9.456210000000000448e-01 8.522000000000000061e-03 -5.526999999999999795e-03 -9.433270000000000266e-01 -3.475000000000000311e-02 -8.611000000000000598e-03 1.734300000000000078e-02 4.635000000000000231e-03 3.993000000000000022e-03 -2.011299999999999893e-02 -3.619890000000000052e-01 2.087870000000000004e-01 4.453429999999999889e-01 3.575470000000000037e-01 -2.066340000000000121e-01 -4.252159999999999829e-01 2.245340000000000114e-01 -4.610480000000000134e-01 -5.030010000000000314e-01 1.793430000000000024e-01 -1.195220000000000032e-01 -3.144399999999999973e-02 -1.402999999999999950e-03 -4.226139999999999897e-01 5.049430000000000307e-01 -1.356860000000000011e-01 1.562719999999999942e-01 3.202499999999999791e-02 4.089920000000000222e-01 4.253580000000000139e-01 -4.309029999999999805e-01 -4.846999999999999920e-02 6.044650000000000301e-01 4.681620000000000226e-01 3.731380000000000252e-01 2.091959999999999931e-01 4.386340000000000239e-01 5.135100000000000081e-02 2.224980000000000013e-01 -4.785070000000000157e-01 -1.642500000000000071e-01 -5.669039999999999635e-01 -4.309009999999999785e-01 -5.471939999999999582e-01 -2.601640000000000064e-01 4.681609999999999938e-01 5.028999999999999616e-03 -4.277750000000000163e-01 4.386300000000000199e-01 -1.665089999999999903e-01 -1.556359999999999966e-01 -4.785039999999999849e-01 1.625449999999999950e-01 1.423429999999999973e-01 5.041970000000000063e-01 -1.640739999999999976e-01 -1.182109999999999966e-01 -4.857000000000000206e-03 3.641170000000000240e-01 2.193509999999999904e-01 -5.050860000000000349e-01 1.561700000000000033e-01 1.656430000000000125e-01 5.660000000000000100e-03 -3.653790000000000093e-01 2.105319999999999969e-01 -4.455319999999999836e-01 -3.650249999999999884e-01 2.103269999999999862e-01 4.424020000000000175e-01 2.011699999999999947e-02 -1.144300000000000005e-02 9.627999999999999406e-03 5.120609999999999884e-01 3.617900000000000282e-02 -5.030000000000000027e-01 1.927860000000000129e-01 -9.557699999999999529e-02 -3.144299999999999873e-02 3.657909999999999773e-01 2.126149999999999984e-01 5.049420000000000019e-01 -2.035629999999999939e-01 3.933600000000000291e-02 3.202599999999999891e-02 -3.693150000000000044e-01 2.133950000000000014e-01 4.984489999999999754e-01 -1.797599999999999892e-02 9.964000000000000634e-03 -3.021599999999999980e-02 -3.667409999999999837e-01 2.119070000000000120e-01 -5.019050000000000455e-01 -4.184000000000000219e-02 -2.119159999999999933e-01 5.041949999999999488e-01 2.028399999999999995e-02 2.013469999999999982e-01 -4.857000000000000206e-03 -7.747000000000000414e-03 -4.249859999999999749e-01 -5.050850000000000062e-01 -6.540799999999999392e-02 -2.179280000000000106e-01 5.657999999999999835e-03
-1.395700000000000066e-02 -1.506099999999999973e-02 1.209700000000000011e-02 -1.395700000000000066e-02 -1.506099999999999973e-02 -1.209700000000000011e-02 2.315199999999999897e-02 2.186700000000000102e-02 0.000000000000000000e+00 1.610000000000000103e-03 2.053299999999999917e-02 0.000000000000000000e+00 6.775699999999999779e-02 4.893100000000000227e-02 9.999999999999999547e-07 1.061800000000000070e-02 -3.664200000000000096e-02 0.000000000000000000e+00 -3.108662999999999954e+00 1.768407999999999980e+00 -9.999999999999999547e-07 3.128943000000000030e+00 1.774636000000000102e+00 9.999999999999999547e-07 4.267100000000000060e-02 -3.550133999999999901e+00 0.000000000000000000e+00 1.178900000000000087e-02 7.661099999999999854e-02 0.000000000000000000e+00 -2.968099999999999905e-02 2.220700000000000104e-02 -1.999999999999999909e-06 8.743800000000000183e-02 1.876699999999999896e-02 1.999999999999999909e-06 5.963399999999999951e-02 -7.564500000000000390e-02 0.000000000000000000e+00 -3.061398000000000064e+00 1.809798000000000018e+00 0.000000000000000000e+00 2.737300000000000150e-02 8.577500000000000402e-02 1.999999999999999909e-06 1.312999999999999931e-03 -3.542508000000000212e+00 -9.999999999999999547e-07 -4.351800000000000113e-02 -4.861800000000000149e-02 0.000000000000000000e+00 -1.012789999999999940e-01 1.537900000000000031e-02 0.000000000000000000e+00 3.067413999999999863e+00 1.761667000000000094e+00 3.000000000000000076e-06 -6.808599999999999375e-02 -1.161190000000000000e-01 -1.999999999999999909e-06 -6.632499999999999507e-02 -3.367000000000000201e-03 -1.999999999999999909e-06 -9.010999999999999913e-03 -1.940000000000000101e-03 9.999999999999999547e-07 3.048429000000000055e+00 -1.813614000000000059e+00 1.799900000000000111e-02 3.048427999999999916e+00 -1.813612000000000002e+00 -1.799900000000000111e-02 -8.671500000000000041e-02 -2.847600000000000131e-02 -9.871879999999999544e-01 -8.670999999999999541e-02 -2.847399999999999931e-02 9.871879999999999544e-01 -2.165100000000000011e-02 3.532748999999999917e+00 2.431499999999999981e-02 -2.165399999999999964e-02 3.532748000000000221e+00 -2.431600000000000081e-02 -3.059066000000000063e+00 -1.789787000000000017e+00 -2.505599999999999841e-02 -3.059063000000000088e+00 -1.789787999999999935e+00 2.505599999999999841e-02 1.248900000000000010e-02 4.124200000000000088e-02 9.964579999999999549e-01 1.248699999999999984e-02 4.123899999999999788e-02 -9.964579999999999549e-01 2.231999999999999956e-02 -2.158999999999999895e-03 1.869999999999999917e-04 2.231800000000000103e-02 -2.154000000000000099e-03 -1.869999999999999917e-04 6.480000000000000300e-04 7.434200000000000530e-02 3.833400000000000002e-02 6.470000000000000057e-04 7.433599999999999930e-02 -3.833299999999999902e-02 7.804500000000000326e-02 -2.113200000000000148e-02 -2.667999999999999799e-03 7.804200000000000026e-02 -2.112699999999999995e-02 2.668999999999999932e-03 -4.676999999999999734e-03 -8.862999999999999351e-03 -2.157699999999999896e-02 -4.673000000000000070e-03 -8.862000000000000086e-03 2.157699999999999896e-02 5.323499999999999899e-01 -3.606190000000000229e-01 9.999999999999999547e-07 9.387579999999999814e-01 -3.430179999999999896e-01 -1.999999999999999909e-06 2.123909999999999965e-01 3.696800000000000086e-01 -1.039499999999999973e-02 2.123869999999999925e-01 3.696800000000000086e-01 1.039499999999999973e-02 1.898299999999999987e-01 1.693419999999999925e-01 9.999999999999999547e-07 4.801099999999999812e-02 -2.107100000000000084e-01 -4.714499999999999802e-01 -5.110800000000000065e-02 6.370599999999999596e-01 0.000000000000000000e+00 4.800900000000000306e-02 -2.107130000000000114e-01 4.714499999999999802e-01 -3.367000000000000201e-03 8.363410000000000011e-01 -9.999999999999999547e-07 -1.384789999999999910e-01 -1.779189999999999938e-01 2.746000000000000177e-03 -7.306470000000000464e-01 -4.233919999999999906e-01 9.999999999999999547e-07 -1.384769999999999890e-01 -1.779119999999999868e-01 -2.746999999999999876e-03 -9.408910000000000329e-01 -3.475969999999999893e-01 0.000000000000000000e+00 -5.790910000000000224e-01 1.819070000000000131e-01 4.913830000000000142e-01 -1.545310000000000017e-01 1.954539999999999889e-01 -1.999999999999999909e-06 -5.790889999999999649e-01 1.819040000000000101e-01 -4.913830000000000142e-01 1.960100000000000037e-02 -4.071420000000000039e-01 4.742730000000000001e-01 8.582099999999999451e-02 -2.268249999999999988e-01 9.999999999999999547e-07 1.959999999999999937e-02 -4.071449999999999791e-01 -4.742739999999999734e-01 -1.220300000000000031e-02 -2.253719999999999890e-01 -1.999999999999999909e-06 1.617570000000000119e-01 -1.887669999999999904e-01 -2.711500000000000021e-02 2.019680000000000086e-01 1.007500000000000062e-02 -3.000000000000000076e-06 1.617500000000000049e-01 -1.887620000000000131e-01 2.711600000000000121e-02 3.589999999999999875e-03 -4.545300000000000035e-02 9.999999999999999547e-07 3.642159999999999842e-01 2.299039999999999973e-01 -4.965180000000000149e-01 1.122230000000000033e-01 1.742900000000000005e-01 0.000000000000000000e+00 3.642150000000000110e-01 2.298999999999999932e-01 4.965180000000000149e-01 -1.877580000000000082e-01 1.691759999999999931e-01 0.000000000000000000e+00 -6.771699999999999942e-02 2.221609999999999974e-01 7.739999999999999485e-04 -3.287299999999999944e-02 -2.220099999999999851e-02 1.999999999999999909e-06 -6.771499999999999742e-02 2.221589999999999954e-01 -7.730000000000000326e-04 1.398800000000000043e-02 -2.235790000000000000e-01 -9.999999999999999547e-07
-9.511999999999999622e-03 -5.213999999999999885e-03 3.142400000000000054e-02 -9.511999999999999622e-03 -5.213999999999999885e-03 -3.142400000000000054e-02 -1.202320000000000055e-01 3.128000000000000225e-02 9.999999999999999547e-07 -3.360400000000000192e-02 -1.197899999999999937e-01 -9.999999999999999547e-07 -2.863600000000000173e-02 -1.588200000000000028e-02 0.000000000000000000e+00 9.851999999999999647e-03 6.373000000000000193e-03 0.000000000000000000e+00 3.063569000000000209e+00 1.866751999999999967e+00 1.999999999999999909e-06 -5.467500000000000138e-02 7.328000000000000312e-03 -1.999999999999999909e-06 3.147908999999999846e+00 1.718890999999999947e+00 -3.000000000000000076e-06 -2.161000000000000074e-02 -5.192999999999999700e-02 3.000000000000000076e-06 1.115320000000000061e-01 -3.581027000000000182e+00 9.999999999999999547e-07 4.064000000000000251e-02 5.671299999999999952e-02 -9.999999999999999547e-07 -3.045885999999999871e+00 1.887993000000000032e+00 -3.000000000000000076e-06 6.888099999999999778e-02 7.901000000000000037e-03 3.000000000000000076e-06 -3.098116999999999788e+00 -1.789204999999999934e+00 1.999999999999999909e-06 7.225499999999999978e-02 4.064600000000000157e-02 -3.000000000000000076e-06 -6.890300000000000591e-02 2.835400000000000073e-02 -3.000000000000000076e-06 -4.490100000000000341e-02 -1.964899999999999980e-02 3.999999999999999819e-06 -7.234300000000000452e-02 -4.121699999999999670e-02 1.999999999999999909e-06 -1.189100000000000053e-02 -6.315000000000000301e-03 -1.999999999999999909e-06 -1.043600000000000083e-02 -7.482500000000000262e-02 3.000000000000000076e-06 -4.004599999999999826e-02 -3.002799999999999914e-02 -3.000000000000000076e-06 3.060512000000000121e+00 -1.792950000000000044e+00 -3.809999999999999910e-04 3.060506999999999866e+00 -1.792955000000000076e+00 3.809999999999999910e-04 -8.857199999999999795e-02 -4.998600000000000265e-02 4.148899999999999810e-02 -8.856999999999999595e-02 -4.997800000000000159e-02 -4.148899999999999810e-02 -2.210499999999999965e-02 3.546174000000000159e+00 -3.899999999999999929e-04 -2.209699999999999859e-02 3.546174000000000159e+00 3.890000000000000228e-04 -3.077860999999999958e+00 -1.777554000000000078e+00 2.700999999999999842e-03 -3.077862000000000098e+00 -1.777547999999999906e+00 -2.700999999999999842e-03 1.206499999999999934e-02 7.433000000000000371e-03 -9.590180000000000371e-01 1.207100000000000013e-02 7.428999999999999840e-03 9.590180000000000371e-01 1.126399999999999971e-02 6.752000000000000189e-03 -9.589630000000000098e-01 1.125699999999999965e-02 6.749999999999999924e-03 9.589640000000000386e-01 1.211199999999999950e-02 9.362700000000000189e-02 -2.076000000000000154e-03 1.211800000000000030e-02 9.362099999999999589e-02 2.076000000000000154e-03 8.783799999999999941e-02 -3.556700000000000139e-02 -2.072000000000000057e-03 8.783100000000000629e-02 -3.557199999999999945e-02 2.072000000000000057e-03 1.241599999999999995e-02 6.519999999999999754e-03 4.426599999999999979e-02 1.241399999999999969e-02 6.529000000000000081e-03 -4.426700000000000079e-02 9.371610000000000218e-01 -3.425489999999999924e-01 -9.999999999999999547e-07 7.283380000000000409e-01 -4.213810000000000056e-01 0.000000000000000000e+00 5.709429999999999783e-01 1.514969999999999928e-01 -4.517729999999999801e-01 2.892390000000000239e-01 1.684630000000000016e-01 0.000000000000000000e+00 5.709429999999999783e-01 1.514949999999999908e-01 4.517729999999999801e-01 3.854599999999999693e-02 2.376199999999999840e-02 0.000000000000000000e+00 4.158319999999999794e-01 4.176650000000000085e-01 -4.517349999999999977e-01 1.725299999999999889e-01 9.816230000000000233e-01 9.999999999999999547e-07 4.158319999999999794e-01 4.176639999999999797e-01 4.517349999999999977e-01 -1.230000000000000082e-04 8.401990000000000292e-01 0.000000000000000000e+00 -1.619379999999999986e-01 -5.924380000000000202e-01 -4.152319999999999900e-01 -9.776310000000000278e-01 -5.651969999999999494e-01 -9.999999999999999547e-07 -1.619389999999999996e-01 -5.924369999999999914e-01 4.152299999999999880e-01 -7.326430000000000442e-01 -4.237429999999999808e-01 0.000000000000000000e+00 -5.947470000000000256e-01 1.572840000000000071e-01 -4.152009999999999867e-01 -5.947470000000000256e-01 1.572830000000000061e-01 4.152020000000000155e-01 -4.870000000000000197e-03 4.559099999999999958e-02 -9.999999999999999547e-07 -3.685399999999999787e-01 -2.142179999999999918e-01 -9.134179999999999522e-01 -3.685399999999999787e-01 -2.142169999999999908e-01 9.134170000000000345e-01 3.574299999999999700e-02 -2.723300000000000026e-02 -9.999999999999999547e-07 1.762880000000000003e-01 -1.611970000000000069e-01 3.477000000000000229e-02 6.167799999999999672e-02 -2.462360000000000104e-01 9.999999999999999547e-07 1.762900000000000023e-01 -1.611960000000000059e-01 -3.477000000000000229e-02 4.721000000000000370e-03 -4.447000000000000258e-02 0.000000000000000000e+00 1.816299999999999859e-02 1.139500000000000061e-02 6.536400000000000543e-02 -1.816949999999999954e-01 1.776780000000000026e-01 0.000000000000000000e+00 1.816299999999999859e-02 1.139399999999999961e-02 -6.536300000000000443e-02 -3.546099999999999947e-02 2.744699999999999918e-02 0.000000000000000000e+00 -5.212800000000000072e-02 2.321830000000000005e-01 3.477100000000000329e-02 -1.655590000000000117e-01 -9.657100000000000406e-02 9.999999999999999547e-07 -5.212699999999999972e-02 2.321840000000000015e-01 -3.477000000000000229e-02 -3.739599999999999869e-02 -2.255899999999999919e-02 0.000000000000000000e+00