-4.038149431900000081e+02
-4.038312664499999869e+02
-4.038010110299999837e+02
-4.038358472099999972e+02
-4.037786218699999949e+02
-4.037727259999999774e+02
-4.037925743999999781e+02
-4.037495483199999740e+02
-4.037727974499999846e+02
-4.037361584000000221e+02
