-2.080600000000000158e-02 -1.201200000000000011e-02 1.798800000000000052e-02 -2.055799999999999988e-02 -1.186899999999999934e-02 1.843300000000000147e-02 -2.052100000000000105e-02 -1.184799999999999916e-02 1.716000000000000164e-02 -1.952699999999999922e-02 -1.899530000000000107e-01 7.888000000000000567e-02 -1.838100000000000150e-02 -1.893910000000000038e-01 7.993799999999999517e-02 -1.933700000000000002e-02 -1.899299999999999877e-01 7.825600000000000611e-02 1.002080000000000054e-01 1.600449999999999928e-01 -1.176520000000000066e-01 1.006330000000000002e-01 1.604299999999999893e-01 -1.169980000000000048e-01 9.983499999999999319e-02 1.597800000000000054e-01 -1.184550000000000047e-01 -1.742670000000000052e-01 7.806599999999999651e-02 7.888000000000000567e-02 -1.732080000000000009e-01 7.877599999999999880e-02 7.993799999999999517e-02 -1.741530000000000022e-01 7.821799999999999586e-02 7.825699999999999323e-02 -1.125100000000000058e-02 -6.496000000000000038e-03 9.471000000000000252e-03 -1.092800000000000021e-02 -6.309999999999999637e-03 9.499000000000000499e-03 -1.230999999999999976e-02 -7.107999999999999735e-03 7.627000000000000099e-03 -2.846119999999999761e-01 1.940500000000000003e-01 1.049670000000000047e-01 -2.842259999999999787e-01 1.942460000000000020e-01 1.056929999999999953e-01 -2.844030000000000169e-01 1.948950000000000127e-01 1.041770000000000057e-01 1.887060000000000126e-01 6.760999999999999649e-03 -1.176520000000000066e-01 1.892520000000000036e-01 6.936000000000000325e-03 -1.169980000000000048e-01 1.882900000000000129e-01 6.570000000000000319e-03 -1.184540000000000037e-01 2.574600000000000152e-02 -3.435059999999999780e-01 1.049680000000000057e-01 2.610900000000000026e-02 -3.432700000000000196e-01 1.056929999999999953e-01 2.658200000000000146e-02 -3.437479999999999980e-01 1.041780000000000067e-01 3.014512999999999998e+00 1.740429000000000004e+00 -2.459837999999999969e+00 3.013465000000000060e+00 1.739824999999999955e+00 -2.460928000000000004e+00 3.014692000000000149e+00 1.740533000000000108e+00 -2.459452999999999889e+00 -5.606900000000000078e-02 5.738999999999999657e-02 1.478600000000000053e-02 -5.707500000000000073e-02 5.679000000000000020e-02 1.317199999999999968e-02 -5.653999999999999998e-02 5.769300000000000123e-02 1.444299999999999924e-02 1.181800000000000038e-02 -3.578116000000000074e+00 1.258734000000000020e+00 1.116100000000000078e-02 -3.578216999999999981e+00 1.257997000000000032e+00 1.165599999999999969e-02 -3.578130999999999950e+00 1.258734999999999937e+00 2.166500000000000023e-02 -7.725200000000000122e-02 1.478600000000000053e-02 2.064300000000000163e-02 -7.782300000000000328e-02 1.317399999999999995e-02 2.169199999999999948e-02 -7.781100000000000516e-02 1.444299999999999924e-02 4.888100000000000084e-02 2.822200000000000056e-02 -4.040300000000000141e-02 4.864799999999999680e-02 2.808700000000000085e-02 -4.170999999999999708e-02 4.922699999999999992e-02 2.842099999999999835e-02 -4.083200000000000024e-02 -1.043200000000000030e-02 7.972999999999999185e-03 3.739000000000000136e-03 -1.113699999999999933e-02 7.566999999999999942e-03 2.863999999999999792e-03 -1.037199999999999928e-02 8.019999999999999352e-03 3.814999999999999815e-03 -3.092830999999999886e+00 1.799293000000000031e+00 1.258736000000000077e+00 -3.093246999999999858e+00 1.798774000000000095e+00 1.257995999999999892e+00 -3.092925999999999842e+00 1.799160000000000093e+00 1.258736000000000077e+00 1.688999999999999963e-03 -1.302000000000000032e-02 3.738000000000000003e-03 9.849999999999999815e-04 -1.342800000000000070e-02 2.863999999999999792e-03 1.758999999999999930e-03 -1.299200000000000008e-02 3.814999999999999815e-03 1.830199999999999882e-02 1.056600000000000074e-02 -1.407500000000000070e-02 1.780599999999999891e-02 1.027999999999999921e-02 -1.488300000000000040e-02 1.833800000000000013e-02 1.058699999999999919e-02 -1.400799999999999962e-02 2.385569999999999913e-01 1.377339999999999953e-01 -1.963390000000000135e-01 2.399640000000000106e-01 1.385389999999999955e-01 -1.949619999999999964e-01 2.382930000000000048e-01 1.375740000000000018e-01 -1.969349999999999989e-01
-1.039699999999999999e-02 -2.689400000000000124e-02 -1.938700000000000145e-02 1.944600000000000148e-02 -9.657999999999999918e-03 2.942399999999999877e-02 -5.804399999999999837e-02 -1.909679999999999989e-01 1.034589999999999954e-01 1.838599999999999957e-02 2.276699999999999904e-02 -1.954699999999999840e-02 -5.672900000000000165e-02 -1.625149999999999928e-01 -1.136240000000000028e-01 1.118090000000000056e-01 -6.519999999999999407e-02 1.614220000000000099e-01 -5.877000000000000279e-02 3.420900000000000329e-02 -2.156420000000000003e-01 1.124140000000000000e-01 1.317119999999999957e-01 -1.140420000000000045e-01 1.366719999999999879e-01 1.469999999999999918e-01 1.033020000000000049e-01 -2.938299999999999940e-02 1.731600000000000153e-02 1.163499999999999951e-02 -1.698040000000000105e-01 6.119499999999999940e-02 7.048300000000000398e-02 -1.596460000000000101e-01 6.704699999999999549e-02 8.691500000000000614e-02 -1.710879999999999901e-01 8.489900000000000224e-02 3.418500000000000011e-02 2.371999999999999977e-03 -2.047999999999999907e-03 -1.359999999999999989e-04 -1.387720000000000065e-01 1.035589999999999983e-01 8.680599999999999428e-02 -1.602020000000000111e-01 1.046119999999999967e-01 3.310899999999999954e-02 -1.375379999999999936e-01 1.176729999999999998e-01 7.020200000000000051e-02 -4.301369999999999916e-01 2.486410000000000009e-01 1.744110000000000105e-01 4.600599999999999828e-02 -2.159699999999999953e-01 -1.532660000000000133e-01 1.424799999999999955e-01 2.003699999999999926e-02 -9.296400000000000496e-02 2.103230000000000099e-01 -1.210360000000000047e-01 1.148880000000000040e-01 1.410889999999999922e-01 -8.273700000000000498e-02 4.925700000000000217e-02 5.400400000000000339e-02 -1.329960000000000031e-01 -9.281899999999999873e-02 2.097789999999999933e-01 6.825599999999999723e-02 -1.534889999999999866e-01 -2.052599999999999911e-02 1.256999999999999958e-02 -3.671529000000000043e+00 3.053071000000000090e+00 1.784659999999999913e+00 -2.501011000000000095e+00 2.985412000000000177e+00 1.748054999999999914e+00 1.236140000000000017e+00 -2.394999999999999907e-02 5.085900000000000143e-02 3.712900000000000228e-02 -5.738499999999999851e-02 3.153999999999999859e-02 -1.742399999999999852e-02 -2.106500000000000039e-02 -3.457856000000000041e+00 1.235564000000000107e+00 -5.612500000000000128e-02 -3.976999999999999633e-03 3.683700000000000169e-02 -1.899599999999999900e-02 -3.535626000000000158e+00 -2.500576999999999828e+00 3.053983999999999810e+00 -1.761609999999999898e+00 2.516382000000000119e+00 3.883199999999999846e-02 -2.258900000000000144e-02 5.244000000000000050e-02 -1.730100000000000041e-02 -5.498299999999999715e-02 -3.916200000000000236e-02 7.181099999999999983e-02 -4.128500000000000225e-02 -2.915799999999999989e-02 9.598000000000000628e-03 -7.144000000000000176e-03 -3.850999999999999823e-03 3.833799999999999708e-02 4.052800000000000152e-02 -3.884100000000000052e-02 3.813799999999999829e-02 4.041100000000000247e-02 -3.923200000000000298e-02 3.962500000000000050e-02 -2.176700000000000162e-02 5.203699999999999992e-02 -2.973400000000000001e-02 1.656099999999999933e-02 1.106799999999999971e-02 -1.619699999999999959e-02 -5.398200000000000220e-02 -3.913099999999999912e-02 3.978999999999999898e-03 -2.165600000000000164e-02 6.271999999999999797e-03 -3.105176000000000158e+00 1.792891000000000012e+00 1.256348999999999938e+00 -3.095826000000000189e+00 1.798465999999999898e+00 1.271802000000000099e+00 2.088399999999999979e-02 7.919999999999999957e-03 6.178000000000000332e-03 1.165500000000000043e-02 -1.435099999999999917e-02 -3.347000000000000149e-03 3.318000000000000203e-03 -2.237999999999999972e-03 -2.253700000000000148e-02 1.294499999999999991e-02 -6.589000000000000239e-03 -1.153500000000000011e-02 1.799200000000000105e-02 -3.668999999999999952e-03 -3.265000000000000107e-03 -3.104626000000000108e+00 1.782880999999999938e+00 1.271711000000000036e+00 8.889299999999999979e-02 -3.705780000000000185e-01 7.462299999999999489e-02 9.045100000000000362e-02 -5.205200000000000105e-02 -3.727380000000000138e-01 3.637110000000000065e-01 1.057059999999999944e-01 7.422399999999999831e-02
-2.405600000000000099e-02 -3.516799999999999787e-02 4.611900000000000027e-02 -2.364300000000000082e-02 -3.134800000000000086e-02 -4.340900000000000314e-02 -3.340000000000000087e-03 -1.569450000000000012e-01 1.133860000000000007e-01 -1.120900000000000021e-02 -1.271049999999999958e-01 7.725700000000000622e-02 -1.486499999999999974e-02 -9.652000000000000857e-03 -1.833170000000000077e-01 9.485899999999999888e-02 -7.380100000000000549e-02 1.284409999999999996e-01 9.588900000000000201e-02 1.280229999999999979e-01 3.976699999999999680e-02 -1.080200000000000084e-02 7.473899999999999988e-02 -2.098029999999999895e-01 9.833999999999999686e-02 1.118429999999999980e-01 -5.276800000000000240e-02 -1.725339999999999929e-01 6.299899999999999944e-02 1.043909999999999977e-01 -1.109399999999999969e-02 2.594799999999999884e-02 2.131000000000000082e-03 -1.757589999999999986e-01 6.080699999999999994e-02 6.168400000000000272e-02 -1.723760000000000014e-01 8.326899999999999580e-02 3.915300000000000030e-02 -1.226200000000000033e-02 -9.301999999999999505e-03 1.085599999999999933e-02 -1.303370000000000084e-01 1.076939999999999981e-01 7.220400000000000429e-02 -2.825269999999999726e-01 2.153819999999999901e-01 1.106000000000000039e-01 -1.718369999999999898e-01 9.708300000000000263e-02 1.804000000000000048e-02 -2.819670000000000232e-01 1.648189999999999933e-01 1.522260000000000002e-01 1.999160000000000104e-01 -1.383050000000000113e-01 9.018900000000000527e-02 3.967199999999999893e-02 -5.071400000000000213e-02 -1.966940000000000077e-01 1.644529999999999881e-01 -1.340989999999999960e-01 -3.427000000000000185e-02 1.727200000000000124e-01 -2.470880000000000021e-01 1.325649999999999884e-01 2.414000000000000173e-02 -1.657190000000000052e-01 -1.500720000000000109e-01 1.776089999999999891e-01 7.081500000000000294e-02 -3.153619999999999757e-01 3.030723000000000056e+00 1.795182000000000055e+00 1.290812000000000070e+00 -1.775399999999999895e-02 -1.700199999999999975e-02 -3.733235000000000081e+00 3.013482000000000216e+00 1.761336999999999930e+00 -2.525917000000000190e+00 -5.648399999999999949e-02 8.083500000000000407e-02 -4.923000000000000292e-03 -1.845799999999999871e-02 5.414999999999999675e-02 6.032300000000000162e-02 -3.752099999999999880e-02 -3.528887999999999803e+00 1.238456999999999919e+00 -2.766000000000000056e-02 -3.598713000000000051e+00 1.288921999999999901e+00 -8.363000000000000642e-03 1.055099999999999962e-02 -3.802252000000000187e+00 3.060499000000000080e+00 -1.770278999999999936e+00 2.498456000000000010e+00 4.726099999999999746e-02 -6.618699999999999584e-02 8.397999999999999216e-03 2.885499999999999871e-02 -2.890200000000000061e-02 3.294300000000000006e-02 2.033700000000000091e-02 -3.039700000000000041e-02 -6.309099999999999431e-02 4.915800000000000031e-02 1.558900000000000043e-02 -2.390000000000000110e-02 1.304899999999999984e-02 2.005600000000000091e-02 1.572999999999999962e-03 2.772099999999999911e-02 3.514599999999999669e-02 -5.721600000000000297e-02 2.949200000000000085e-02 -2.833400000000000155e-02 2.364899999999999988e-02 -1.247400000000000071e-02 -7.327000000000000179e-03 2.389600000000000057e-02 -1.564799999999999872e-02 -2.809400000000000092e-02 -3.016200000000000131e-02 -3.113643000000000161e+00 1.806546999999999903e+00 1.267525999999999931e+00 2.135599999999999998e-02 -3.024299999999999905e-02 7.197000000000000272e-03 -3.097650999999999932e+00 1.793730000000000047e+00 1.272281999999999913e+00 3.863999999999999813e-03 1.975999999999999892e-03 -1.577599999999999836e-02 2.628000000000000128e-03 3.719000000000000083e-03 1.292699999999999926e-02 2.572999999999999940e-02 -1.392900000000000041e-02 -1.632899999999999976e-02 1.656300000000000133e-02 -5.432000000000000196e-03 -2.535499999999999907e-02 2.348899999999999946e-02 -3.027000000000000177e-03 5.217000000000000283e-03 -3.091133999999999826e+00 1.787657000000000052e+00 1.269810000000000105e+00 7.172399999999999609e-02 -1.534010000000000096e-01 9.985099999999999532e-02 2.048510000000000053e-01 6.080100000000000088e-02 -3.538399999999999879e-02 2.370180000000000065e-01 5.870199999999999724e-02 -8.201600000000000557e-02
3.289600000000000163e-02 -1.769700000000000092e-02 -1.288399999999999962e-02 -2.894599999999999951e-02 -1.860439999999999872e-01 1.164840000000000042e-01 -5.451700000000000296e-02 -2.007980000000000043e-01 7.344699999999999840e-02 -3.008900000000000116e-02 4.607599999999999890e-02 -2.148629999999999984e-01 7.798599999999999977e-02 -4.464200000000000113e-02 -3.026999999999999830e-02 1.471419999999999950e-01 1.482729999999999881e-01 7.352699999999999514e-02 -5.524500000000000244e-02 2.615999999999999836e-03 -2.148950000000000027e-01 1.477590000000000015e-01 1.199650000000000022e-01 1.165189999999999976e-01 -3.982800000000000229e-02 2.276999999999999857e-02 1.548000000000000070e-02 -2.721499999999999961e-02 -1.667999999999999995e-03 -1.773000000000000053e-03 -1.564020000000000132e-01 5.966300000000000076e-02 7.638699999999999657e-02 -1.174599999999999950e-02 7.344999999999999966e-03 2.266599999999999865e-02 -1.576770000000000116e-01 8.995799999999999630e-02 3.078300000000000133e-02 -1.293999999999999873e-01 1.062670000000000003e-01 7.645599999999999619e-02 -2.998460000000000014e-01 1.871349999999999958e-01 1.150850000000000067e-01 -1.228899999999999958e-02 2.411100000000000049e-02 -1.742000000000000059e-03 -2.985990000000000033e-01 1.721709999999999907e-01 1.395740000000000036e-01 -3.129129999999999967e-01 1.646309999999999996e-01 1.150280000000000052e-01 -4.662999999999999610e-03 -2.051979999999999915e-01 -1.456439999999999957e-01 1.765780000000000127e-01 -1.006620000000000015e-01 1.500799999999999912e-01 6.981300000000000006e-02 -3.673779999999999824e-01 8.631400000000000183e-02 1.752980000000000094e-01 1.062440000000000051e-01 -1.455740000000000089e-01 6.925800000000000012e-02 -4.088100000000000067e-02 -3.761950000000000016e-01 3.529760000000000120e-01 1.229679999999999940e-01 8.630699999999999483e-02 8.455999999999999975e-03 1.712599999999999886e-02 -3.732472000000000012e+00 3.047102000000000199e+00 1.771495000000000042e+00 1.229020999999999919e+00 -9.346999999999999753e-02 5.495699999999999891e-02 3.890199999999999908e-02 -3.790299999999999919e-02 2.144199999999999925e-02 1.636400000000000007e-02 -1.102700000000000034e-02 -3.525176999999999783e+00 1.228947999999999929e+00 7.908000000000000099e-03 -3.513837999999999795e+00 1.260180000000000078e+00 -9.894999999999999282e-03 -1.465699999999999989e-02 -3.732451000000000185e+00 3.003124999999999822e+00 -1.733602000000000087e+00 -1.226258000000000070e+00 3.048065999999999942e+00 1.750779000000000085e+00 1.260551999999999895e+00 5.800000000000000034e-05 -2.954000000000000029e-03 1.755000000000000050e-03 3.552099999999999702e-02 -2.098300000000000165e-02 -8.483000000000000262e-02 9.274300000000000599e-02 1.146699999999999976e-02 8.151000000000000259e-03 2.171000000000000187e-03 7.489999999999999913e-04 1.752000000000000085e-03 2.401299999999999962e-02 5.411799999999999944e-02 -3.582199999999999968e-02 -6.290000000000000018e-04 -8.540000000000000499e-04 -3.815999999999999948e-03 2.531699999999999923e-02 -1.439999999999999961e-02 6.385599999999999610e-02 -3.590200000000000335e-02 -4.973299999999999943e-02 -3.580699999999999855e-02 3.663799999999999696e-02 -8.571099999999999552e-02 8.151000000000000259e-03 8.371999999999999234e-03 -3.836000000000000000e-03 1.949999999999999997e-02 -3.098612000000000144e+00 1.773198999999999970e+00 1.270324999999999926e+00 -9.912000000000000671e-03 -1.440899999999999993e-02 -1.013599999999999918e-02 3.251799999999999830e-02 6.382999999999999785e-03 5.102999999999999897e-03 9.686999999999999431e-03 -6.798000000000000223e-03 -3.191399999999999793e-02 7.720000000000000299e-03 1.615700000000000122e-02 -1.014999999999999930e-02 1.095400000000000020e-02 -3.100800000000000084e-02 5.115999999999999888e-03 -3.084757999999999889e+00 1.797187000000000090e+00 1.270313000000000025e+00 -3.098097999999999796e+00 1.789506999999999959e+00 1.248510999999999926e+00 1.411650000000000127e-01 -9.775899999999999868e-02 -6.784400000000000153e-02 1.533770000000000133e-01 -9.043099999999999750e-02 -4.734000000000000014e-02 1.549669999999999936e-01 -7.364099999999999813e-02 -6.795500000000000151e-02
1.483300000000000070e-02 8.566000000000000697e-03 7.482500000000000262e-02 -5.508899999999999908e-02 -3.180499999999999994e-02 -3.928799999999999654e-02 -1.592520000000000047e-01 -9.194599999999999995e-02 1.304180000000000061e-01 -4.503700000000000064e-02 -1.283829999999999971e-01 7.272000000000000686e-02 -1.031299999999999925e-02 1.071599999999999983e-02 -1.699460000000000137e-01 1.310250000000000026e-01 9.231399999999999328e-02 6.061699999999999727e-02 -6.227200000000000096e-02 1.718280000000000085e-01 9.482300000000000451e-02 1.271899999999999940e-02 5.379699999999999760e-02 -2.544000000000000081e-02 -1.583249999999999935e-01 1.163410000000000000e-01 -6.218200000000000116e-02 -1.336990000000000123e-01 2.518799999999999858e-02 7.272199999999999498e-02 4.124000000000000062e-03 -1.428899999999999962e-02 -1.699479999999999880e-01 1.454580000000000040e-01 6.731399999999999884e-02 6.061600000000000321e-02 -1.485710000000000086e-01 -8.577999999999999514e-02 6.058800000000000296e-02 -1.604600000000000123e-02 -9.265000000000000666e-03 1.370399999999999917e-02 -9.978499999999999870e-02 -5.761000000000000149e-02 1.400879999999999903e-01 2.541399999999999909e-02 2.167080000000000117e-01 1.147900000000000031e-01 -1.437479999999999869e-01 1.190260000000000068e-01 -1.613219999999999932e-01 1.176719999999999988e-01 -1.398409999999999931e-01 9.482599999999999363e-02 5.294999999999999707e-02 -1.588300000000000128e-02 -2.544099999999999834e-02 2.159099999999999908e-02 -1.952849999999999864e-01 -6.218400000000000316e-02 2.003820000000000046e-01 -8.634699999999999320e-02 1.147900000000000031e-01 3.120699999999999863e-02 -1.840040000000000009e-01 -1.613209999999999922e-01 1.317429999999999990e-01 7.606100000000000361e-02 -3.218070000000000097e-01 3.066090000000000204e-01 1.770190000000000097e-01 -3.653700000000000003e-02 3.127971000000000057e+00 1.805935999999999986e+00 1.315422000000000091e+00 -5.846699999999999814e-02 -3.375700000000000228e-02 4.726600000000000246e-02 -3.063000000000000098e-02 -1.768399999999999833e-02 -3.841417999999999999e+00 -4.392800000000000177e-02 3.778900000000000314e-02 -3.373799999999999716e-02 -5.729999999999999850e-03 5.982799999999999924e-02 2.864999999999999838e-02 5.527999999999999928e-03 -3.522731999999999974e+00 1.242221999999999937e+00 -3.482099999999999779e-02 -3.609907999999999895e+00 1.298537999999999970e+00 -2.332599999999999951e-02 7.729999999999999892e-03 -3.800126999999999811e+00 3.089960000000000040e+00 1.805171000000000081e+00 1.282672000000000034e+00 1.076099999999999973e-02 -5.693700000000000150e-02 -3.373799999999999716e-02 4.894799999999999846e-02 -3.487699999999999828e-02 2.865099999999999938e-02 -3.048010000000000108e+00 1.766153000000000084e+00 1.242221000000000020e+00 2.829100000000000018e-02 1.633300000000000030e-02 -2.359299999999999939e-02 2.988000000000000031e-02 1.725099999999999897e-02 2.920999999999999985e-02 -1.493899999999999915e-02 -8.625000000000000722e-03 -4.403800000000000076e-02 4.521599999999999925e-02 -1.369399999999999958e-02 7.891000000000000444e-03 -1.018400000000000034e-02 -2.589899999999999841e-02 1.410400000000000022e-02 2.030699999999999866e-02 -2.807300000000000073e-02 -3.277800000000000158e-02 -3.143679999999999808e+00 1.774798000000000098e+00 1.298534999999999995e+00 -4.969999999999999592e-03 -2.406600000000000059e-02 -3.800127999999999950e+00 3.108302000000000120e+00 1.773396999999999890e+00 1.282670999999999895e+00 1.074999999999999914e-02 4.600599999999999828e-02 7.891999999999999710e-03 -2.752100000000000032e-02 4.129999999999999991e-03 1.410299999999999922e-02 -1.415899999999999971e-02 3.162199999999999733e-02 -3.277800000000000158e-02 -2.599000000000000182e-03 -1.502000000000000080e-03 -3.183400000000000118e-02 2.531900000000000123e-02 1.461900000000000005e-02 1.377800000000000032e-02 -3.055454000000000114e+00 -1.764067000000000052e+00 2.495554999999999968e+00 -1.702440000000000064e-01 1.689900000000000083e-02 9.626099999999999934e-02 -7.049099999999999810e-02 -1.558750000000000135e-01 9.626300000000000134e-02 4.433100000000000235e-02 2.559300000000000117e-02 -3.784599999999999770e-02
-4.291400000000000076e-02 -2.048300000000000121e-02 -1.487899999999999986e-02 -2.353099999999999983e-02 -1.503319999999999934e-01 5.251499999999999918e-02 -1.406580000000000052e-01 5.732999999999999902e-02 1.353520000000000001e-01 -2.468199999999999908e-02 -2.318999999999999881e-03 -1.598990000000000133e-01 1.348280000000000034e-01 9.224200000000000454e-02 6.652099999999999680e-02 -2.873200000000000059e-02 -1.222739999999999938e-01 5.572799999999999976e-02 -1.413459999999999994e-01 1.470420000000000060e-01 7.791000000000000182e-03 -2.810400000000000051e-02 1.306000000000000043e-02 -1.326259999999999939e-01 -3.824000000000000316e-02 1.766290000000000082e-01 1.242390000000000022e-01 4.564900000000000208e-02 -2.968999999999999851e-03 -2.710000000000000169e-03 -1.545999999999999978e-02 -2.693299999999999861e-02 -1.953650000000000109e-01 -1.424800000000000025e-02 1.049009999999999942e-01 1.520430000000000115e-01 -1.670500000000000110e-02 -1.951110000000000066e-01 3.974199999999999955e-02 -1.333779999999999966e-01 1.073049999999999976e-01 7.716599999999999848e-02 -1.281549999999999911e-01 -7.507700000000000484e-02 1.046020000000000005e-01 -1.478800000000000080e-02 1.786290000000000100e-01 4.707100000000000173e-02 -1.268660000000000065e-01 7.495599999999999485e-02 -1.041310000000000013e-01 -2.394999999999999993e-03 -4.398200000000000026e-02 -3.170699999999999907e-02 4.156499999999999778e-02 -1.932639999999999914e-01 -1.195039999999999991e-01 1.560469999999999913e-01 -1.140960000000000030e-01 1.572719999999999951e-01 4.025999999999999718e-02 -1.787860000000000005e-01 -1.430410000000000015e-01 1.548170000000000102e-01 -2.377549999999999941e-01 1.816349999999999909e-01 1.554290000000000116e-01 1.104470000000000035e-01 -1.610679999999999890e-01 1.547920000000000129e-01 9.338399999999999479e-02 -2.831839999999999913e-01 -1.427900000000000003e-02 -5.468300000000000244e-02 7.269000000000000461e-02 -3.676399999999999807e-02 2.872999999999999859e-02 -3.818674000000000124e+00 3.057074000000000069e+00 1.780475000000000030e+00 1.259069999999999911e+00 5.865999999999999687e-03 6.660299999999999554e-02 4.828299999999999953e-02 -1.479100000000000033e-02 -3.575340999999999880e+00 1.254911000000000110e+00 -1.495200000000000001e-02 4.938300000000000328e-02 -7.584200000000000663e-02 -1.365700000000000074e-02 -6.871999999999999637e-03 -3.788464999999999971e+00 3.088919000000000192e+00 1.808329000000000075e+00 1.278197000000000028e+00 -3.671300000000000258e-02 -3.589506999999999781e+00 1.299647999999999914e+00 4.512000000000000038e-02 -3.777799999999999908e-02 8.559000000000000635e-03 3.733000000000000207e-02 1.868000000000000086e-03 -9.372000000000000122e-03 -3.042034999999999823e+00 1.750153000000000070e+00 1.237568000000000001e+00 2.262999999999999821e-03 2.716899999999999871e-02 2.040300000000000100e-02 6.679999999999999740e-04 1.637000000000000000e-03 -1.767600000000000074e-02 4.445099999999999746e-02 -6.019000000000000045e-03 -3.893499999999999739e-02 1.955000000000000140e-03 -1.474600000000000043e-02 8.300999999999999351e-03 5.431000000000000064e-03 -3.217199999999999921e-02 -2.342299999999999938e-02 3.845699999999999813e-02 -6.932999999999999927e-03 4.527999999999999907e-03 -3.034999999999999851e-02 -4.250099999999999711e-02 3.203199999999999797e-02 3.380000000000000192e-03 -7.599999999999999985e-03 -3.807424000000000142e+00 -2.170700000000000060e-02 3.544316999999999940e+00 2.506270000000000220e+00 -1.084899999999999927e-02 5.197000000000000230e-02 3.730900000000000188e-02 1.039699999999999999e-02 -5.982999999999999603e-03 5.962000000000000285e-03 -3.101699999999999943e-02 1.510899999999999917e-02 -5.080400000000000194e-02 1.165799999999999996e-02 4.998999999999999971e-03 -6.762999999999999914e-03 -3.092747999999999831e+00 1.799247000000000041e+00 1.271757000000000026e+00 3.981000000000000164e-03 -3.591168999999999834e+00 1.262005000000000043e+00 -1.015059999999999990e-01 1.610830000000000040e-01 1.136349999999999999e-01 7.179999999999999967e-04 -2.222500000000000170e-02 -1.453400000000000004e-02 1.405129999999999990e-01 1.099119999999999958e-01 7.721999999999999698e-02
1.640700000000000144e-02 9.495999999999999233e-03 -1.240100000000000056e-02 -3.804699999999999749e-02 -1.566909999999999969e-01 1.144140000000000018e-01 -1.825269999999999948e-01 2.935199999999999962e-02 6.772999999999999854e-02 -4.646000000000000130e-02 -1.028199999999999947e-02 -1.839459999999999984e-01 9.891300000000000092e-02 -5.378999999999999754e-02 1.462199999999999889e-01 1.587099999999999969e-02 4.100000000000000172e-02 -6.602000000000000229e-03 -1.632020000000000137e-01 1.131149999999999933e-01 -1.530249999999999944e-01 1.328350000000000086e-01 1.012009999999999993e-01 1.287069999999999881e-01 -1.724120000000000097e-01 1.254149999999999987e-01 3.731700000000000295e-02 2.833799999999999861e-02 -1.552100000000000007e-02 -3.042600000000000166e-02 -1.490620000000000001e-01 2.484499999999999903e-02 -1.018669999999999992e-01 1.441810000000000036e-01 6.686200000000000476e-02 1.031439999999999996e-01 2.926000000000000215e-03 -1.856230000000000102e-01 3.056599999999999942e-02 -1.315999999999999948e-01 1.113510000000000055e-01 7.530699999999999894e-02 -1.440150000000000041e-01 -8.313299999999999856e-02 1.152100000000000068e-01 1.466520000000000046e-01 9.705700000000000438e-02 2.102100000000000149e-02 -2.494240000000000068e-01 1.700180000000000025e-01 -2.301599999999999827e-02 -4.614000000000000046e-02 -5.098400000000000154e-02 -1.979239999999999888e-01 1.909980000000000011e-01 -9.715000000000000024e-02 1.319200000000000095e-01 4.123099999999999682e-02 -2.011429999999999885e-01 6.810499999999999887e-02 3.833500000000000102e-02 9.761000000000000579e-03 -1.734759999999999913e-01 1.176389999999999936e-01 -2.468019999999999936e-01 1.301029999999999964e-01 2.348499999999999893e-02 3.200100000000000167e-02 -3.738489999999999869e-01 3.231399999999999828e-01 1.680860000000000132e-01 8.854199999999999571e-02 2.573299999999999893e-02 -1.795799999999999827e-02 -3.733115999999999879e+00 3.037955000000000183e+00 1.786826999999999943e+00 1.231667999999999985e+00 -4.049900000000000028e-02 -2.336799999999999988e-02 3.415699999999999986e-02 -7.105000000000000204e-03 1.645399999999999988e-02 2.895000000000000004e-02 -2.064399999999999916e-02 -3.519468999999999959e+00 1.212480000000000002e+00 3.556800000000000239e-02 7.760799999999999643e-02 -6.289999999999999584e-03 9.388000000000000511e-03 -1.796499999999999833e-02 -3.786833000000000116e+00 3.049519999999999786e+00 -1.774904000000000037e+00 2.499235999999999791e+00 -5.766799999999999704e-02 -1.584199999999999844e-02 1.583100000000000132e-02 -1.353000000000000036e-02 -2.835899999999999879e-02 -1.062699999999999929e-02 4.904700000000000032e-02 -2.814399999999999888e-02 -6.451800000000000590e-02 -3.022383000000000042e+00 1.762194000000000038e+00 1.270834999999999937e+00 -9.159999999999999740e-03 1.955199999999999994e-02 2.482999999999999964e-03 4.339500000000000302e-02 2.506099999999999994e-02 -3.741699999999999887e-02 9.195000000000000048e-03 -1.952500000000000069e-02 -3.673000000000000050e-03 4.841999999999999950e-03 1.875699999999999937e-02 1.210699999999999971e-02 -1.458899999999999954e-02 -4.425899999999999973e-02 -4.514699999999999963e-02 4.887199999999999878e-02 -2.770299999999999846e-02 2.600799999999999987e-02 -2.120000000000000009e-02 -2.964800000000000074e-02 5.049300000000000316e-02 -3.065554999999999808e+00 1.765757999999999939e+00 -2.486613999999999880e+00 3.082758000000000109e+00 1.803322000000000092e+00 1.264520000000000088e+00 1.095199999999999993e-02 4.218800000000000328e-02 4.699099999999999805e-02 3.660000000000000059e-04 -1.573300000000000046e-02 -1.746800000000000089e-02 -3.700799999999999923e-02 3.456900000000000250e-02 -3.512400000000000244e-02 -4.745000000000000086e-03 -2.710000000000000169e-03 4.722999999999999768e-03 -3.095540000000000180e+00 1.807765999999999984e+00 1.283967999999999998e+00 -4.341000000000000240e-03 -3.597484000000000126e+00 1.247773999999999939e+00 -1.711189999999999933e-01 1.235200000000000048e-01 -8.132000000000000339e-03 7.766800000000000093e-02 -1.777179999999999871e-01 8.314900000000000069e-02 1.017649999999999944e-01 5.876900000000000179e-02 -8.218899999999999817e-02