3.148083918000000647e+00 4.655731738076236565e-24 8.271806125530276749e-25 1.574042069425624746e+00 2.726320579999998106e+00 0.000000000000000000e+00 1.574042002741194768e+00 9.087735570849440059e-01 2.570399693666666430e+00
3.083808231999999983e+00 0.000000000000000000e+00 0.000000000000000000e+00 1.579551667999999909e+00 2.801683351999999960e+00 0.000000000000000000e+00 1.516324492000000079e+00 9.556411089999999886e-01 2.610404516000000008e+00
3.068791763000000117e+00 0.000000000000000000e+00 0.000000000000000000e+00 1.609228346000000087e+00 2.680447195000000171e+00 0.000000000000000000e+00 1.585468657000000059e+00 9.282177120000000281e-01 2.643312877000000061e+00
3.079655139000000208e+00 0.000000000000000000e+00 0.000000000000000000e+00 1.546758341000000092e+00 2.779513461000000074e+00 0.000000000000000000e+00 1.569103834000000086e+00 9.136241790000000362e-01 2.535703074999999806e+00
3.184598150999999877e+00 0.000000000000000000e+00 0.000000000000000000e+00 1.563859681999999918e+00 2.763509920999999814e+00 0.000000000000000000e+00 1.528004703999999991e+00 8.649139670000000057e-01 2.544237868000000180e+00
3.142735490000000187e+00 0.000000000000000000e+00 0.000000000000000000e+00 1.508870160999999932e+00 2.771781057000000104e+00 0.000000000000000000e+00 1.487229375999999936e+00 8.798173990000000000e-01 2.505807732000000065e+00
3.216757117999999860e+00 0.000000000000000000e+00 0.000000000000000000e+00 1.678075827000000020e+00 2.654199124999999881e+00 0.000000000000000000e+00 1.588936990000000105e+00 8.807654689999999675e-01 2.573364784999999877e+00
3.063777315999999917e+00 0.000000000000000000e+00 0.000000000000000000e+00 1.530029923000000069e+00 2.734699153000000216e+00 0.000000000000000000e+00 1.586368349000000011e+00 9.619478049999999891e-01 2.506141189000000047e+00
3.056322446999999887e+00 0.000000000000000000e+00 0.000000000000000000e+00 1.478468694000000028e+00 2.778531559999999789e+00 0.000000000000000000e+00 1.530954308999999958e+00 8.787906300000000170e-01 2.556239092999999851e+00
3.224181391000000119e+00 0.000000000000000000e+00 0.000000000000000000e+00 1.535929196999999968e+00 2.741783153000000084e+00 0.000000000000000000e+00 1.587828750999999983e+00 9.249894149999999815e-01 2.623557411999999811e+00
3.158899915000000114e+00 0.000000000000000000e+00 0.000000000000000000e+00 1.517010114999999937e+00 2.685847945999999986e+00 0.000000000000000000e+00 1.504942852000000109e+00 9.331573619999999902e-01 2.638025665999999880e+00
3.213585199999999809e+00 0.000000000000000000e+00 0.000000000000000000e+00 1.548793995999999895e+00 2.727180666000000198e+00 0.000000000000000000e+00 1.632090341000000056e+00 9.770517560000000490e-01 2.610958308999999922e+00
3.059719287000000065e+00 0.000000000000000000e+00 0.000000000000000000e+00 1.569123993000000050e+00 2.661139418999999950e+00 0.000000000000000000e+00 1.606732320999999963e+00 8.231703190000000392e-01 2.608015158000000167e+00
3.146850082999999909e+00 0.000000000000000000e+00 0.000000000000000000e+00 1.594592073000000054e+00 2.657047851000000183e+00 0.000000000000000000e+00 1.613839036999999976e+00 8.859041749999999604e-01 2.615294827000000044e+00
3.204106791000000065e+00 0.000000000000000000e+00 0.000000000000000000e+00 1.640760216000000105e+00 2.674995597000000114e+00 0.000000000000000000e+00 1.615780479000000103e+00 9.310752220000000356e-01 2.610344018000000155e+00
3.121967099999999995e+00 0.000000000000000000e+00 0.000000000000000000e+00 1.530482099000000096e+00 2.785423610000000050e+00 0.000000000000000000e+00 1.607762324999999937e+00 8.564359750000000160e-01 2.528195999999999888e+00
3.215045930000000052e+00 0.000000000000000000e+00 0.000000000000000000e+00 1.677407139999999908e+00 2.751753718999999876e+00 0.000000000000000000e+00 1.697701748999999927e+00 8.575059830000000272e-01 2.618951282999999908e+00
3.124269731000000050e+00 0.000000000000000000e+00 0.000000000000000000e+00 1.597607540000000048e+00 2.732211310999999920e+00 0.000000000000000000e+00 1.586975626000000084e+00 9.288824770000000397e-01 2.553876949000000174e+00
3.091494621999999914e+00 0.000000000000000000e+00 0.000000000000000000e+00 1.560045099999999962e+00 2.707716888000000210e+00 0.000000000000000000e+00 1.516635211999999955e+00 9.265290800000000049e-01 2.632197473000000176e+00
3.175898248999999840e+00 0.000000000000000000e+00 0.000000000000000000e+00 1.551785420999999943e+00 2.654575304999999830e+00 0.000000000000000000e+00 1.603138466999999956e+00 8.661087109999999756e-01 2.605106269999999835e+00
3.149416621999999943e+00 0.000000000000000000e+00 0.000000000000000000e+00 1.544073194999999954e+00 2.696063011000000120e+00 0.000000000000000000e+00 1.566082406999999899e+00 8.684178150000000374e-01 2.511713569999999951e+00
3.179882746000000537e+00 3.273749839012941912e-24 0.000000000000000000e+00 1.589941484425624774e+00 2.753859171999998079e+00 0.000000000000000000e+00 1.589941416741194935e+00 9.179530880849440244e-01 2.596363326666666360e+00
3.210649880000000067e+00 0.000000000000000000e+00 0.000000000000000000e+00 1.643921433999999904e+00 2.777588946999999919e+00 0.000000000000000000e+00 1.665136976000000102e+00 9.278459270000000148e-01 2.567520355000000087e+00
3.262118359000000023e+00 0.000000000000000000e+00 0.000000000000000000e+00 1.627729997000000095e+00 2.732201288999999811e+00 0.000000000000000000e+00 1.591893814000000074e+00 9.319352659999999844e-01 2.562381985000000029e+00
3.220531788999999812e+00 0.000000000000000000e+00 0.000000000000000000e+00 1.572908259999999947e+00 2.675606264999999873e+00 0.000000000000000000e+00 1.656813606999999910e+00 8.666707209999999773e-01 2.643942867999999891e+00
3.181603711999999806e+00 0.000000000000000000e+00 0.000000000000000000e+00 1.555949122999999990e+00 2.763625801999999965e+00 0.000000000000000000e+00 1.514164958999999921e+00 9.858582999999999652e-01 2.661207309999999993e+00
3.123716453000000115e+00 0.000000000000000000e+00 0.000000000000000000e+00 1.561459660999999999e+00 2.747772016999999956e+00 0.000000000000000000e+00 1.636115859000000006e+00 8.847142439999999830e-01 2.610090748000000183e+00
3.217232582999999924e+00 0.000000000000000000e+00 0.000000000000000000e+00 1.627404744999999986e+00 2.713615578999999833e+00 0.000000000000000000e+00 1.544848701999999907e+00 9.176879869999999828e-01 2.562013282000000114e+00
3.236277102999999933e+00 0.000000000000000000e+00 0.000000000000000000e+00 1.656043740999999958e+00 2.676498835999999937e+00 0.000000000000000000e+00 1.571026454000000072e+00 8.531606449999999953e-01 2.631854891999999779e+00
3.230605892999999895e+00 0.000000000000000000e+00 0.000000000000000000e+00 1.605289382999999903e+00 2.675698435999999791e+00 0.000000000000000000e+00 1.655426536000000004e+00 8.913404090000000002e-01 2.637203299999999917e+00
3.180446670999999892e+00 0.000000000000000000e+00 0.000000000000000000e+00 1.631329505999999929e+00 2.674302309999999849e+00 0.000000000000000000e+00 1.526457787000000010e+00 9.468222139999999953e-01 2.665540050999999799e+00
3.101496392000000046e+00 0.000000000000000000e+00 0.000000000000000000e+00 1.516973625000000103e+00 2.756143380999999781e+00 0.000000000000000000e+00 1.539549174000000020e+00 9.917147910000000399e-01 2.548570835000000034e+00
3.252351243000000114e+00 0.000000000000000000e+00 0.000000000000000000e+00 1.647767044000000070e+00 2.782297788999999799e+00 0.000000000000000000e+00 1.557257872000000098e+00 9.519973729999999801e-01 2.538503604999999830e+00
3.243001046999999915e+00 0.000000000000000000e+00 0.000000000000000000e+00 1.686154909000000091e+00 2.798889838000000019e+00 0.000000000000000000e+00 1.588088831999999950e+00 1.005565005000000012e+00 2.574644814000000004e+00
3.159918492000000079e+00 0.000000000000000000e+00 0.000000000000000000e+00 1.543636347000000075e+00 2.687630696999999902e+00 0.000000000000000000e+00 1.529751405000000064e+00 9.671501740000000291e-01 2.592594903999999811e+00
3.208850862999999887e+00 0.000000000000000000e+00 0.000000000000000000e+00 1.662569801000000069e+00 2.813932406999999802e+00 0.000000000000000000e+00 1.672511622999999892e+00 9.482596979999999842e-01 2.589168004999999884e+00
3.092397490999999832e+00 0.000000000000000000e+00 0.000000000000000000e+00 1.516055431999999925e+00 2.694368483999999953e+00 0.000000000000000000e+00 1.594553902999999995e+00 8.815017579999999686e-01 2.639510081000000064e+00
3.263685720999999873e+00 0.000000000000000000e+00 0.000000000000000000e+00 1.672649185999999899e+00 2.694524688000000001e+00 0.000000000000000000e+00 1.692947591000000029e+00 8.284998089999999760e-01 2.656877907000000150e+00
3.213782023999999904e+00 0.000000000000000000e+00 0.000000000000000000e+00 1.652592081000000102e+00 2.758590929999999997e+00 0.000000000000000000e+00 1.615608192999999915e+00 9.296242630000000062e-01 2.613911535999999813e+00
3.184178283000000054e+00 0.000000000000000000e+00 0.000000000000000000e+00 1.624513437000000060e+00 2.793600296999999788e+00 0.000000000000000000e+00 1.601230080999999972e+00 9.209320970000000051e-01 2.638562856000000068e+00
3.170824821000000071e+00 0.000000000000000000e+00 0.000000000000000000e+00 1.597467559000000037e+00 2.809831990000000168e+00 0.000000000000000000e+00 1.618897645999999968e+00 9.818306860000000080e-01 2.555158196999999909e+00
3.247366967000000049e+00 0.000000000000000000e+00 0.000000000000000000e+00 1.545215597999999968e+00 2.718536026000000216e+00 0.000000000000000000e+00 1.658359029000000096e+00 9.079147490000000209e-01 2.665464384999999936e+00
3.211681573000000345e+00 9.607537474420696842e-25 8.271806125530276749e-25 1.605840899291649970e+00 2.781397763499998010e+00 -3.308722450212110699e-24 1.605840831029869964e+00 9.271326195277528326e-01 2.622326959333332930e+00
3.192889811000000133e+00 0.000000000000000000e+00 0.000000000000000000e+00 1.654637343000000094e+00 2.796589034999999779e+00 0.000000000000000000e+00 1.596493726999999918e+00 9.320179109999999767e-01 2.609804669999999938e+00
3.245094530999999893e+00 0.000000000000000000e+00 0.000000000000000000e+00 1.647957624000000010e+00 2.754985435000000038e+00 0.000000000000000000e+00 1.623292688999999900e+00 9.165476710000000082e-01 2.566920899999999950e+00
3.270693345999999835e+00 0.000000000000000000e+00 0.000000000000000000e+00 1.674250285000000060e+00 2.784360191000000206e+00 0.000000000000000000e+00 1.708943096000000050e+00 9.826139339999999667e-01 2.546704559000000145e+00
3.146535683999999833e+00 0.000000000000000000e+00 0.000000000000000000e+00 1.494689691999999903e+00 2.804176114000000108e+00 0.000000000000000000e+00 1.506914142000000068e+00 9.208053600000000172e-01 2.606432387999999989e+00
3.246953360000000011e+00 0.000000000000000000e+00 0.000000000000000000e+00 1.673151684000000028e+00 2.758228610999999830e+00 0.000000000000000000e+00 1.568913100999999921e+00 9.884561779999999631e-01 2.674063186999999786e+00
3.133388783000000011e+00 0.000000000000000000e+00 0.000000000000000000e+00 1.567593060000000094e+00 2.722440209999999805e+00 0.000000000000000000e+00 1.602514470000000024e+00 9.353690590000000027e-01 2.665409331999999853e+00
3.252977249999999820e+00 0.000000000000000000e+00 0.000000000000000000e+00 1.664406451999999925e+00 2.750011943000000070e+00 0.000000000000000000e+00 1.572013757999999983e+00 8.514851930000000291e-01 2.596925537000000173e+00
3.270170695000000016e+00 0.000000000000000000e+00 0.000000000000000000e+00 1.566757704999999889e+00 2.843981171999999891e+00 0.000000000000000000e+00 1.652539876000000074e+00 8.982199880000000247e-01 2.634886104000000007e+00
3.130127247999999973e+00 0.000000000000000000e+00 0.000000000000000000e+00 1.622945309999999974e+00 2.796059395999999975e+00 0.000000000000000000e+00 1.554132743999999899e+00 9.784884240000000233e-01 2.618983572999999954e+00
3.187386984000000201e+00 0.000000000000000000e+00 0.000000000000000000e+00 1.608683730000000089e+00 2.863327608000000080e+00 0.000000000000000000e+00 1.623411444000000037e+00 9.810557659999999958e-01 2.566779803000000193e+00
3.304692891000000188e+00 0.000000000000000000e+00 0.000000000000000000e+00 1.726446807000000083e+00 2.762576532000000196e+00 0.000000000000000000e+00 1.729557240000000107e+00 8.740489510000000184e-01 2.619895046999999977e+00
3.185301310999999913e+00 0.000000000000000000e+00 0.000000000000000000e+00 1.632325103999999971e+00 2.858531992000000077e+00 0.000000000000000000e+00 1.646962118999999891e+00 9.587164879999999778e-01 2.679352149000000072e+00
3.129527986999999900e+00 0.000000000000000000e+00 0.000000000000000000e+00 1.539731519000000048e+00 2.821298408000000091e+00 0.000000000000000000e+00 1.634238273000000019e+00 9.882917770000000379e-01 2.562929855999999784e+00
3.186266629999999989e+00 0.000000000000000000e+00 0.000000000000000000e+00 1.597055145999999981e+00 2.739822034999999989e+00 0.000000000000000000e+00 1.651091201000000064e+00 9.905359040000000226e-01 2.596138981000000179e+00
3.295459587999999940e+00 0.000000000000000000e+00 0.000000000000000000e+00 1.616901079000000019e+00 2.756941351000000040e+00 0.000000000000000000e+00 1.603450859999999922e+00 8.689314630000000150e-01 2.643912454000000078e+00
3.305798781000000020e+00 0.000000000000000000e+00 0.000000000000000000e+00 1.585634503999999945e+00 2.780936839000000216e+00 0.000000000000000000e+00 1.674798879999999990e+00 8.640505120000000483e-01 2.542886923000000188e+00
3.294256235999999838e+00 0.000000000000000000e+00 0.000000000000000000e+00 1.653604419999999964e+00 2.740488098000000150e+00 0.000000000000000000e+00 1.701488367000000057e+00 8.720940289999999928e-01 2.683934445999999863e+00
3.255600371999999965e+00 0.000000000000000000e+00 0.000000000000000000e+00 1.708984512000000011e+00 2.803411085000000025e+00 0.000000000000000000e+00 1.620965430999999901e+00 9.432955060000000058e-01 2.573781125000000003e+00
3.194709479000000130e+00 0.000000000000000000e+00 0.000000000000000000e+00 1.608338070000000064e+00 2.721737076999999783e+00 0.000000000000000000e+00 1.538943726000000067e+00 9.063527190000000289e-01 2.648607337000000062e+00
3.242093468000000200e+00 0.000000000000000000e+00 0.000000000000000000e+00 1.689126813999999976e+00 2.836131072999999780e+00 0.000000000000000000e+00 1.569851048000000082e+00 9.042558769999999857e-01 2.582685983000000185e+00
3.408777114000019370e+00 -5.015938169453008357e-23 -2.584575348879539498e-24 1.704389024826854282e+00 2.952087283999975664e+00 1.171922259755877902e-23 1.704389089552986070e+00 9.840293352080956568e-01 2.783254488999973297e+00
3.445741251999999921e+00 0.000000000000000000e+00 0.000000000000000000e+00 1.792210139999999896e+00 2.908126746000000207e+00 0.000000000000000000e+00 1.808397868999999991e+00 9.092746689999999798e-01 2.848420646000000112e+00
3.486001154999999851e+00 0.000000000000000000e+00 0.000000000000000000e+00 1.774343180000000020e+00 2.930043390999999886e+00 0.000000000000000000e+00 1.779640711999999958e+00 8.985650120000000518e-01 2.843046214000000127e+00
3.419238583999999914e+00 0.000000000000000000e+00 0.000000000000000000e+00 1.786961167999999933e+00 2.957107263999999791e+00 0.000000000000000000e+00 1.705149382000000102e+00 1.055003193999999977e+00 2.713069974999999801e+00
3.482510072000000179e+00 0.000000000000000000e+00 0.000000000000000000e+00 1.661094414999999991e+00 2.868713034999999856e+00 0.000000000000000000e+00 1.733934166999999915e+00 9.420784399999999614e-01 2.700432886999999837e+00
3.326796632999999836e+00 0.000000000000000000e+00 0.000000000000000000e+00 1.695135135999999987e+00 2.950125859999999989e+00 0.000000000000000000e+00 1.712996382999999900e+00 1.062780414999999978e+00 2.737393171999999986e+00
3.315062542000000168e+00 0.000000000000000000e+00 0.000000000000000000e+00 1.597540724999999995e+00 2.991981807999999798e+00 0.000000000000000000e+00 1.579495325999999977e+00 1.019724359000000025e+00 2.791347061999999823e+00
3.393088335999999927e+00 0.000000000000000000e+00 0.000000000000000000e+00 1.718435423000000073e+00 2.965623637999999840e+00 0.000000000000000000e+00 1.751722580000000029e+00 1.033880898999999909e+00 2.700283021999999811e+00
3.376230194000000129e+00 0.000000000000000000e+00 0.000000000000000000e+00 1.770852214999999896e+00 3.037715303000000144e+00 0.000000000000000000e+00 1.636112489000000059e+00 1.014328458000000044e+00 2.857779253999999991e+00
3.400766631000000206e+00 0.000000000000000000e+00 0.000000000000000000e+00 1.694539849000000098e+00 2.904150216000000118e+00 0.000000000000000000e+00 1.777605257000000050e+00 9.745998030000000423e-01 2.736478539999999793e+00
3.476243386000000157e+00 0.000000000000000000e+00 0.000000000000000000e+00 1.755731455000000052e+00 2.874241758999999785e+00 0.000000000000000000e+00 1.688661827000000004e+00 1.025133940999999993e+00 2.704786169000000129e+00
3.371785115999999860e+00 0.000000000000000000e+00 0.000000000000000000e+00 1.606959298999999897e+00 2.957948360000000054e+00 0.000000000000000000e+00 1.651951536999999970e+00 1.007272584999999943e+00 2.843512146000000129e+00
3.391414946999999902e+00 0.000000000000000000e+00 0.000000000000000000e+00 1.728553817999999964e+00 2.878486887999999855e+00 0.000000000000000000e+00 1.709254325999999935e+00 9.012451820000000335e-01 2.716963454000000056e+00
3.385164808999999941e+00 0.000000000000000000e+00 0.000000000000000000e+00 1.700889880999999937e+00 2.933638768999999868e+00 0.000000000000000000e+00 1.649435803000000034e+00 9.612995570000000267e-01 2.845378235000000089e+00
3.433216734999999797e+00 0.000000000000000000e+00 0.000000000000000000e+00 1.742514770999999962e+00 2.920329688999999895e+00 0.000000000000000000e+00 1.742125095000000012e+00 1.055497530000000017e+00 2.856639534999999785e+00
3.456687389999999915e+00 0.000000000000000000e+00 0.000000000000000000e+00 1.755824467999999916e+00 2.879643844999999924e+00 0.000000000000000000e+00 1.658676162999999981e+00 1.001265261999999989e+00 2.731516061999999856e+00
3.320532034999999826e+00 0.000000000000000000e+00 0.000000000000000000e+00 1.660183371000000019e+00 3.036394962999999780e+00 0.000000000000000000e+00 1.690892650000000108e+00 1.054525278999999927e+00 2.788126253000000165e+00
3.383554339999999883e+00 0.000000000000000000e+00 0.000000000000000000e+00 1.631080582999999917e+00 2.973437049999999804e+00 0.000000000000000000e+00 1.728373616999999918e+00 1.028591583999999948e+00 2.718234482999999813e+00
3.317801325000000023e+00 0.000000000000000000e+00 0.000000000000000000e+00 1.713968195000000083e+00 2.984017437999999967e+00 0.000000000000000000e+00 1.664448632000000039e+00 9.309399029999999575e-01 2.729059653000000196e+00
3.344607665999999924e+00 0.000000000000000000e+00 0.000000000000000000e+00 1.759373840999999938e+00 2.892452403000000061e+00 0.000000000000000000e+00 1.761363613999999966e+00 9.943587550000000386e-01 2.788440432999999885e+00
3.388777832000000156e+00 0.000000000000000000e+00 0.000000000000000000e+00 1.630243263000000109e+00 2.884294638000000077e+00 0.000000000000000000e+00 1.740281658000000009e+00 9.061752870000000515e-01 2.777807045999999946e+00
3.443209206000020117e+00 -7.162461110793961242e-23 -3.549364849340239363e-23 1.721605075424930353e+00 2.981906347499974963e+00 -5.087927692007389796e-23 1.721605141052004351e+00 9.939690265937132230e-01 2.811368170333305994e+00
3.425358039999999882e+00 0.000000000000000000e+00 0.000000000000000000e+00 1.724275642000000053e+00 3.000474779999999786e+00 0.000000000000000000e+00 1.679575344999999942e+00 9.969109800000000021e-01 2.828220332999999975e+00
3.413785687999999929e+00 0.000000000000000000e+00 0.000000000000000000e+00 1.642102088999999987e+00 3.068482252999999993e+00 0.000000000000000000e+00 1.759244556999999931e+00 1.053997142000000053e+00 2.874338883000000067e+00
3.466269453999999861e+00 0.000000000000000000e+00 0.000000000000000000e+00 1.732201960000000041e+00 2.938466550999999871e+00 0.000000000000000000e+00 1.727357841999999977e+00 9.497845019999999749e-01 2.771134301000000022e+00
3.508356819999999932e+00 0.000000000000000000e+00 0.000000000000000000e+00 1.728064465999999966e+00 3.057368701000000133e+00 0.000000000000000000e+00 1.724877701000000041e+00 1.075597415999999917e+00 2.834863683000000023e+00
3.450929626000000194e+00 0.000000000000000000e+00 0.000000000000000000e+00 1.663972207000000036e+00 2.955755662000000061e+00 0.000000000000000000e+00 1.654316270000000033e+00 1.058924388000000105e+00 2.726478140999999855e+00
3.456846415999999866e+00 0.000000000000000000e+00 0.000000000000000000e+00 1.709275942000000104e+00 2.936052822000000173e+00 0.000000000000000000e+00 1.641214316999999978e+00 9.817470750000000246e-01 2.870778186999999981e+00
3.348203965999999809e+00 0.000000000000000000e+00 0.000000000000000000e+00 1.734161534999999921e+00 2.945126746000000129e+00 0.000000000000000000e+00 1.625452794000000090e+00 9.099998459999999456e-01 2.858491494999999993e+00
3.443979973999999888e+00 0.000000000000000000e+00 0.000000000000000000e+00 1.694959400999999977e+00 3.065496095999999948e+00 0.000000000000000000e+00 1.748827681000000078e+00 1.073516501999999928e+00 2.808756047999999783e+00
3.374872689000000037e+00 0.000000000000000000e+00 0.000000000000000000e+00 1.675037800999999993e+00 3.041747367000000146e+00 0.000000000000000000e+00 1.717154355999999993e+00 1.002535788999999955e+00 2.793133232000000188e+00
3.352661582000000084e+00 0.000000000000000000e+00 0.000000000000000000e+00 1.695126362000000109e+00 3.026090872000000154e+00 0.000000000000000000e+00 1.765012142000000006e+00 9.846185920000000147e-01 2.817858835000000006e+00
3.445536365000000156e+00 0.000000000000000000e+00 0.000000000000000000e+00 1.772090010999999965e+00 3.005938315999999944e+00 0.000000000000000000e+00 1.751410504000000090e+00 1.084513298999999931e+00 2.816691952999999859e+00
3.446363792000000092e+00 0.000000000000000000e+00 0.000000000000000000e+00 1.640636387000000029e+00 2.984447176999999840e+00 0.000000000000000000e+00 1.707656287000000050e+00 9.391702929999999894e-01 2.826581453000000188e+00
3.524396746999999941e+00 0.000000000000000000e+00 0.000000000000000000e+00 1.684198136000000012e+00 3.024123422000000172e+00 0.000000000000000000e+00 1.802840533999999995e+00 1.001426512000000102e+00 2.727342698999999815e+00
3.506247284000000075e+00 0.000000000000000000e+00 0.000000000000000000e+00 1.727616054000000068e+00 2.936017075000000087e+00 0.000000000000000000e+00 1.665770704999999907e+00 9.665310480000000037e-01 2.775775906999999876e+00
3.453532752000000094e+00 0.000000000000000000e+00 0.000000000000000000e+00 1.792254425999999956e+00 2.989055763000000088e+00 0.000000000000000000e+00 1.734821213000000029e+00 1.012557653000000002e+00 2.828322448999999850e+00
3.403377401999999829e+00 0.000000000000000000e+00 0.000000000000000000e+00 1.776305910999999904e+00 3.045966933999999959e+00 0.000000000000000000e+00 1.725548999999999999e+00 9.929870939999999591e-01 2.826787439999999929e+00
3.511936787999999865e+00 0.000000000000000000e+00 0.000000000000000000e+00 1.761523283999999911e+00 2.932497210999999826e+00 0.000000000000000000e+00 1.828071583000000055e+00 9.683095800000000031e-01 2.739209611000000155e+00
3.388982388000000068e+00 0.000000000000000000e+00 0.000000000000000000e+00 1.744201161000000111e+00 3.031952964999999889e+00 0.000000000000000000e+00 1.675938390000000000e+00 1.089611349999999979e+00 2.859566261999999970e+00
3.406446996000000116e+00 0.000000000000000000e+00 0.000000000000000000e+00 1.739121409000000007e+00 2.957632201000000016e+00 0.000000000000000000e+00 1.790191152000000008e+00 1.008028104999999952e+00 2.886708207999999942e+00
3.418205300999999974e+00 0.000000000000000000e+00 0.000000000000000000e+00 1.712003919999999901e+00 3.018563411999999779e+00 0.000000000000000000e+00 1.770516427000000004e+00 9.355733910000000320e-01 2.821833074999999802e+00
3.477641298000019088e+00 -4.067294446684047982e-23 1.100661716716550013e-23 1.738821127023006063e+00 3.011725410999974262e+00 -4.379011259506007135e-24 1.738821192551022632e+00 1.003908716036521653e+00 2.839481851999972495e+00
3.498756691000000085e+00 0.000000000000000000e+00 0.000000000000000000e+00 1.806243333999999923e+00 2.998129264000000127e+00 0.000000000000000000e+00 1.814969370000000026e+00 9.165323300000000062e-01 2.811811227000000191e+00
3.481085627000000127e+00 0.000000000000000000e+00 0.000000000000000000e+00 1.655162183000000065e+00 3.037032892000000039e+00 0.000000000000000000e+00 1.751299560999999949e+00 9.446900419999999521e-01 2.861712065999999943e+00
3.431995273000000068e+00 0.000000000000000000e+00 0.000000000000000000e+00 1.746090241000000098e+00 2.956698675999999804e+00 0.000000000000000000e+00 1.787636350999999957e+00 1.005026224000000079e+00 2.776293401000000216e+00
3.572747649000000081e+00 0.000000000000000000e+00 0.000000000000000000e+00 1.873812371000000088e+00 2.950713613000000013e+00 0.000000000000000000e+00 1.875873080999999942e+00 9.668573649999999686e-01 2.773002881000000031e+00
3.568747480999999944e+00 0.000000000000000000e+00 0.000000000000000000e+00 1.793894952000000043e+00 2.962184462000000185e+00 0.000000000000000000e+00 1.756556470999999897e+00 1.014423690999999961e+00 2.820224463000000181e+00
3.471991393999999787e+00 0.000000000000000000e+00 0.000000000000000000e+00 1.715687858999999982e+00 2.977311456999999884e+00 0.000000000000000000e+00 1.699804687999999953e+00 1.046279648000000062e+00 2.819491987999999782e+00
3.474269398000000120e+00 0.000000000000000000e+00 0.000000000000000000e+00 1.774773221000000012e+00 3.058687702999999924e+00 0.000000000000000000e+00 1.777888007999999909e+00 1.079246283000000028e+00 2.892214673999999874e+00
3.537097838999999855e+00 0.000000000000000000e+00 0.000000000000000000e+00 1.803692207999999964e+00 3.020630624999999903e+00 0.000000000000000000e+00 1.807959580999999982e+00 1.042200693000000067e+00 2.865907406999999907e+00
3.464610255000000194e+00 0.000000000000000000e+00 0.000000000000000000e+00 1.672250282999999893e+00 3.027001939999999891e+00 0.000000000000000000e+00 1.661089105000000066e+00 1.038824025000000040e+00 2.894642871999999922e+00
3.390407987000000123e+00 0.000000000000000000e+00 0.000000000000000000e+00 1.785067186000000028e+00 2.969248417000000195e+00 0.000000000000000000e+00 1.765249340000000000e+00 9.952118589999999765e-01 2.854958449999999814e+00
3.493860843999999855e+00 0.000000000000000000e+00 0.000000000000000000e+00 1.822213410000000033e+00 3.039078348999999957e+00 0.000000000000000000e+00 1.768022323000000062e+00 9.306557009999999464e-01 2.845126270000000179e+00
3.527113635000000080e+00 0.000000000000000000e+00 0.000000000000000000e+00 1.845626014000000037e+00 3.023342282999999853e+00 0.000000000000000000e+00 1.830169579999999963e+00 1.078477944999999938e+00 2.802082799999999985e+00
3.441218101000000029e+00 0.000000000000000000e+00 0.000000000000000000e+00 1.631839486999999922e+00 2.971331582999999998e+00 0.000000000000000000e+00 1.746032766999999986e+00 1.063817725000000047e+00 2.815145672999999960e+00
3.486695510000000109e+00 0.000000000000000000e+00 0.000000000000000000e+00 1.797104475999999895e+00 2.970971765999999903e+00 0.000000000000000000e+00 1.758648897000000044e+00 9.761370240000000198e-01 2.796162069999999833e+00
3.443269915000000125e+00 0.000000000000000000e+00 0.000000000000000000e+00 1.793383882000000096e+00 3.095345399000000164e+00 0.000000000000000000e+00 1.798570226999999910e+00 9.817288950000000458e-01 2.857927135999999813e+00
3.574685180999999989e+00 0.000000000000000000e+00 0.000000000000000000e+00 1.710795424000000065e+00 3.043539840999999857e+00 0.000000000000000000e+00 1.784603090999999919e+00 9.873124810000000195e-01 2.825448419999999849e+00
3.386965752000000052e+00 0.000000000000000000e+00 0.000000000000000000e+00 1.659215646000000044e+00 3.000889597000000020e+00 0.000000000000000000e+00 1.652057738999999970e+00 9.461720519999999857e-01 2.901712900999999789e+00
3.555085510000000060e+00 0.000000000000000000e+00 0.000000000000000000e+00 1.786447072999999941e+00 2.943156012999999849e+00 0.000000000000000000e+00 1.820165798999999973e+00 9.347626479999999738e-01 2.835289755999999883e+00
3.481771752000000220e+00 0.000000000000000000e+00 0.000000000000000000e+00 1.684692979999999896e+00 3.085265189999999880e+00 0.000000000000000000e+00 1.792551183000000048e+00 1.110339838000000023e+00 2.918433206000000002e+00
3.465723549999999875e+00 0.000000000000000000e+00 0.000000000000000000e+00 1.649960125000000000e+00 3.043933153999999863e+00 0.000000000000000000e+00 1.786263044000000022e+00 9.673269150000000094e-01 2.884425154000000102e+00
