3.148080038583469076e+00 1.817549943542552393e+00 1.285199985333321360e+00 3.148079999999999323e+00 -6.399992037121441755e-08 -3.999994646136398376e-09
3.089269999999999960e+00 1.872149999999999981e+00 1.305919999999999970e+00 3.093830000000000080e+00 1.695999999999999938e-02 2.340000000000000066e-03
3.131769999999999943e+00 1.804249999999999909e+00 1.321579999999999977e+00 4.675089999999999968e+00 2.675469999999999793e+00 2.139999999999999975e-03
3.098759999999999959e+00 1.837299999999999933e+00 1.276100000000000012e+00 4.637640000000000207e+00 9.201599999999999779e-01 2.534149999999999903e+00
3.147279999999999855e+00 1.814619999999999900e+00 1.264939999999999953e+00 4.748339999999999783e+00 2.761550000000000171e+00 2.619999999999999933e-03
3.070370000000000044e+00 1.827430000000000110e+00 1.256350000000000078e+00 2.990559999999999885e+00 3.641290000000000138e+00 2.492830000000000101e+00
3.245249999999999968e+00 1.766939999999999955e+00 1.290790000000000104e+00 3.272110000000000074e+00 3.531010000000000204e+00 2.571790000000000020e+00
3.083200000000000163e+00 1.848190000000000000e+00 1.250739999999999963e+00 6.177920000000000300e+00 3.694710000000000161e+00 2.504010000000000069e+00
3.024830000000000130e+00 1.816670000000000007e+00 1.282669999999999977e+00 4.532530000000000392e+00 2.766880000000000006e+00 1.223999999999999914e-02
3.185799999999999965e+00 1.830389999999999961e+00 1.302179999999999893e+00 4.759079999999999977e+00 2.739879999999999871e+00 1.510000000000000057e-03
3.090860000000000163e+00 1.809669999999999890e+00 1.316179999999999906e+00 3.015740000000000087e+00 3.607909999999999950e+00 2.629049999999999887e+00
3.200930000000000053e+00 1.848649999999999904e+00 1.303069999999999951e+00 3.211250000000000160e+00 1.789999999999999925e-03 3.989999999999999623e-03
3.119689999999999852e+00 1.743759999999999977e+00 1.318619999999999903e+00 1.615010000000000057e+00 8.243300000000000072e-01 2.594240000000000101e+00
3.189639999999999809e+00 1.775300000000000100e+00 1.304529999999999967e+00 1.614030000000000076e+00 8.860299999999999843e-01 2.615270000000000206e+00
3.217740000000000045e+00 1.797560000000000047e+00 1.307530000000000081e+00 1.623399999999999954e+00 9.340100000000000069e-01 2.609589999999999854e+00
3.132880000000000109e+00 1.822629999999999972e+00 1.262850000000000028e+00 1.617899999999999894e+00 8.543699999999999628e-01 2.521980000000000111e+00
3.296650000000000080e+00 1.803500000000000103e+00 1.309879999999999933e+00 1.697950000000000070e+00 8.577700000000000324e-01 2.618930000000000202e+00
3.155809999999999782e+00 1.830379999999999896e+00 1.279439999999999911e+00 3.199510000000000076e+00 3.655339999999999812e+00 2.546380000000000088e+00
3.098669999999999813e+00 1.823779999999999957e+00 1.316610000000000058e+00 4.609099999999999753e+00 9.310800000000000187e-01 2.630500000000000060e+00
3.157480000000000064e+00 1.759679999999999911e+00 1.308319999999999927e+00 4.718029999999999724e+00 2.647740000000000204e+00 4.700000000000000185e-03
3.128690000000000193e+00 1.774299999999999988e+00 1.256879999999999997e+00 4.684929999999999595e+00 2.689960000000000129e+00 5.409999999999999878e-03
3.179880038583484669e+00 1.835909943542517464e+00 1.298179985333314468e+00 3.179879999999998930e+00 -6.399994475579342952e-08 -3.999996173943089268e-09
3.275729999999999809e+00 1.852149999999999963e+00 1.282739999999999991e+00 3.208460000000000090e+00 1.449999999999999900e-03 7.299999999999999632e-04
3.245839999999999836e+00 1.828149999999999942e+00 1.285910000000000108e+00 4.841969999999999885e+00 9.374400000000000510e-01 2.561539999999999928e+00
3.217000000000000082e+00 1.778999999999999915e+00 1.323369999999999935e+00 3.231939999999999813e+00 3.538429999999999964e+00 2.640719999999999956e+00
3.127720000000000056e+00 1.875410000000000021e+00 1.327860000000000040e+00 1.523230000000000084e+00 9.859400000000000386e-01 2.646180000000000199e+00
3.163839999999999986e+00 1.799020000000000064e+00 1.312049999999999939e+00 3.195809999999999818e+00 3.629659999999999886e+00 2.608950000000000102e+00
3.187790000000000123e+00 1.821050000000000058e+00 1.278659999999999908e+00 3.222510000000000208e+00 9.660000000000000184e-03 1.160000000000000007e-03
3.233299999999999841e+00 1.767439999999999900e+00 1.318810000000000038e+00 1.660819999999999963e+00 2.673200000000000021e+00 5.409999999999999878e-03
3.242020000000000124e+00 1.790790000000000104e+00 1.315979999999999928e+00 3.263939999999999841e+00 3.564789999999999903e+00 2.635520000000000085e+00
3.178119999999999834e+00 1.807450000000000001e+00 1.338319999999999954e+00 4.706809999999999938e+00 9.468600000000000350e-01 2.665420000000000122e+00
3.069650000000000212e+00 1.869359999999999911e+00 1.288739999999999997e+00 4.643419999999999881e+00 1.002559999999999896e+00 2.541160000000000085e+00
3.226339999999999986e+00 1.869280000000000053e+00 1.268839999999999968e+00 4.897789999999999644e+00 2.780299999999999994e+00 1.034999999999999983e-02
3.268670000000000186e+00 1.905810000000000004e+00 1.277479999999999949e+00 3.283790000000000209e+00 3.798880000000000035e+00 2.567219999999999835e+00
3.112509999999999888e+00 1.831909999999999927e+00 1.298829999999999929e+00 3.150809999999999889e+00 1.431999999999999940e-02 6.069999999999999875e-03
3.272499999999999964e+00 1.877050000000000107e+00 1.294929999999999914e+00 3.333359999999999879e+00 3.761029999999999873e+00 2.586349999999999927e+00
3.102489999999999970e+00 1.788729999999999931e+00 1.319930000000000048e+00 3.110349999999999948e+00 3.568700000000000205e+00 2.624530000000000030e+00
3.311570000000000125e+00 1.757220000000000004e+00 1.311560000000000059e+00 1.675310000000000077e+00 2.685839999999999783e+00 3.099999999999999891e-03
3.240520000000000067e+00 1.829890000000000017e+00 1.294119999999999937e+00 1.617080000000000073e+00 9.328600000000000225e-01 2.610739999999999839e+00
3.207250000000000156e+00 1.862579999999999902e+00 1.315350000000000019e+00 3.218840000000000146e+00 3.705830000000000179e+00 2.632589999999999986e+00
3.183720000000000105e+00 1.905980000000000008e+00 1.278340000000000032e+00 4.778679999999999595e+00 9.911900000000000155e-01 2.551880000000000148e+00
3.227720000000000145e+00 1.818750000000000089e+00 1.335520000000000040e+00 4.792779999999999596e+00 2.716549999999999798e+00 3.459999999999999968e-03
3.211680039160852207e+00 1.854269943013887145e+00 1.311159984666639744e+00 3.211679999999998980e+00 -6.499996818910028027e-08 -3.999997643619603884e-09
3.217960000000000154e+00 1.859490000000000087e+00 1.302859999999999907e+00 3.265249999999999986e+00 3.720509999999999984e+00 2.600190000000000001e+00
3.259949999999999903e+00 1.832950000000000079e+00 1.286929999999999907e+00 1.625259999999999927e+00 9.156100000000000350e-01 2.563099999999999934e+00
3.323189999999999866e+00 1.893389999999999906e+00 1.283029999999999893e+00 1.678579999999999961e+00 2.782080000000000108e+00 4.170000000000000095e-03
3.081999999999999851e+00 1.860649999999999915e+00 1.291879999999999917e+00 4.636770000000000280e+00 2.803189999999999849e+00 5.720000000000000258e-03
3.249359999999999804e+00 1.888730000000000020e+00 1.332750000000000101e+00 4.808360000000000412e+00 9.968700000000000339e-01 2.672070000000000167e+00
3.144130000000000091e+00 1.839760000000000062e+00 1.324729999999999963e+00 1.602989999999999915e+00 9.349600000000000133e-01 2.658830000000000027e+00
3.245049999999999990e+00 1.800370000000000026e+00 1.298240000000000061e+00 3.234550000000000036e+00 3.594650000000000123e+00 2.593059999999999921e+00
3.235630000000000006e+00 1.855760000000000076e+00 1.311749999999999972e+00 4.913079999999999892e+00 9.101399999999999491e-01 2.625750000000000028e+00
3.159069999999999823e+00 1.886330000000000062e+00 1.309749999999999970e+00 4.685260000000000424e+00 9.976899999999999658e-01 2.616120000000000001e+00
3.221849999999999881e+00 1.921259999999999968e+00 1.271490000000000009e+00 3.245800000000000018e+00 3.839580000000000215e+00 2.558559999999999945e+00
3.379469999999999974e+00 1.815870000000000095e+00 1.309390000000000054e+00 1.735540000000000083e+00 8.781799999999999606e-01 2.614440000000000097e+00
3.244089999999999918e+00 1.921440000000000037e+00 1.336310000000000109e+00 4.815199999999999925e+00 2.854849999999999888e+00 6.360000000000000202e-03
3.159619999999999873e+00 1.906760000000000010e+00 1.278569999999999984e+00 3.183159999999999989e+00 3.806849999999999845e+00 2.559349999999999792e+00
3.217379999999999907e+00 1.863019999999999898e+00 1.290170000000000039e+00 1.197999999999999933e-02 6.049999999999999822e-03 9.129999999999999227e-03
3.255129999999999857e+00 1.813069999999999959e+00 1.325220000000000065e+00 3.293740000000000112e+00 1.000000000000000021e-03 1.059999999999999961e-03
3.282999999999999918e+00 1.823239999999999972e+00 1.271179999999999977e+00 3.287770000000000081e+00 7.830000000000000154e-03 3.069999999999999812e-03
3.328870000000000218e+00 1.808540000000000036e+00 1.339730000000000087e+00 4.945809999999999818e+00 2.742589999999999861e+00 7.640000000000000090e-03
3.305130000000000123e+00 1.874489999999999990e+00 1.302280000000000104e+00 1.714779999999999971e+00 2.793979999999999908e+00 1.046000000000000055e-02
3.169169999999999821e+00 1.808699999999999974e+00 1.320920000000000094e+00 1.545940000000000092e+00 9.107199999999999740e-01 2.645140000000000047e+00
3.246929999999999872e+00 1.872379999999999933e+00 1.293339999999999934e+00 3.259139999999999926e+00 3.738589999999999858e+00 2.582660000000000178e+00
1.704390125094767505e+00 9.840298950517500920e-01 6.958098419998720585e-01 3.408780500379765321e+00 3.936119850207670634e+00 2.783249598999671726e+00
1.760839999999999961e+00 9.412599999999999856e-01 7.059299999999999464e-01 1.812810000000000032e+00 9.154499999999999860e-01 2.843770000000000131e+00
1.756559999999999899e+00 9.548200000000000021e-01 7.146099999999999675e-01 3.547309999999999963e+00 3.812940000000000218e+00 2.833359999999999879e+00
1.742720000000000047e+00 9.966399999999999704e-01 6.691899999999999515e-01 5.204200000000000159e+00 2.948409999999999975e+00 8.850000000000000228e-03
1.720520000000000049e+00 9.516499999999999959e-01 6.757199999999999873e-01 5.206999999999999851e+00 9.467400000000000260e-01 2.692629999999999857e+00
1.688039999999999985e+00 9.981600000000000472e-01 6.735700000000000021e-01 3.333099999999999952e+00 8.630000000000000518e-03 5.400000000000000286e-03
1.625019999999999909e+00 1.005300000000000082e+00 6.991399999999999837e-01 4.909819999999999851e+00 2.987929999999999975e+00 7.210000000000000263e-03
1.708180000000000032e+00 1.007409999999999917e+00 6.716499999999999693e-01 3.477500000000000036e+00 3.992469999999999963e+00 2.693880000000000052e+00
1.700139999999999985e+00 9.998700000000000365e-01 7.217500000000000027e-01 4.709999999999999777e-03 2.619999999999999933e-03 5.519999999999999733e-03
1.728939999999999921e+00 9.800999999999999712e-01 6.779699999999999616e-01 3.473489999999999966e+00 3.875049999999999883e+00 2.734030000000000182e+00
1.734110000000000040e+00 9.684899999999999620e-01 6.743099999999999650e-01 5.228790000000000049e+00 2.871760000000000090e+00 4.510000000000000120e-03
1.674269999999999925e+00 9.805599999999999872e-01 7.134500000000000286e-01 1.653110000000000079e+00 1.008459999999999912e+00 2.840850000000000097e+00
1.700679999999999970e+00 9.440699999999999648e-01 6.786100000000000465e-01 1.711449999999999916e+00 9.014299999999999535e-01 2.714949999999999974e+00
1.672150000000000025e+00 9.820799999999999530e-01 6.975500000000000034e-01 3.384739999999999860e+00 1.000000000000000048e-04 2.799999999999999755e-04
1.741139999999999910e+00 1.008680000000000021e+00 7.197200000000000264e-01 6.908739999999999881e+00 3.967639999999999834e+00 2.851490000000000080e+00
1.733239999999999892e+00 9.678700000000000081e-01 6.870899999999999785e-01 1.769989999999999952e+00 2.879809999999999981e+00 1.387999999999999998e-02
1.670109999999999983e+00 1.014119999999999910e+00 7.086999999999999966e-01 6.655789999999999651e+00 4.086389999999999745e+00 2.778000000000000025e+00
1.677650000000000086e+00 1.009269999999999889e+00 6.783500000000000085e-01 3.361079999999999846e+00 3.993660000000000210e+00 2.705900000000000194e+00
1.672739999999999894e+00 9.799499999999999877e-01 6.972699999999999454e-01 3.372780000000000111e+00 3.910120000000000040e+00 2.718700000000000117e+00
1.715570000000000039e+00 9.713899999999999757e-01 6.974500000000000144e-01 5.102360000000000007e+00 1.001209999999999933e+00 2.786849999999999827e+00
1.687599999999999989e+00 9.497200000000000086e-01 7.082300000000000262e-01 1.742799999999999905e+00 9.046899999999999942e-01 2.760240000000000027e+00
1.721600126369172923e+00 9.939698940237013947e-01 7.028398403336009181e-01 3.443210505477386274e+00 3.975879849093727270e+00 2.811369594333092525e+00
1.717240000000000100e+00 9.982600000000000362e-01 7.055500000000000105e-01 3.404180000000000206e+00 3.994949999999999779e+00 2.827780000000000182e+00
1.703789999999999916e+00 1.030650000000000066e+00 7.186000000000000165e-01 1.641999999999999904e+00 3.067159999999999886e+00 1.499999999999999869e-04
1.731640000000000068e+00 9.715300000000000047e-01 6.940199999999999703e-01 6.510000000000000162e-03 4.890000000000000249e-03 6.289999999999999584e-03
1.730010000000000048e+00 1.047109999999999985e+00 7.186700000000000310e-01 6.959900000000000198e+00 4.132620000000000182e+00 2.834239999999999871e+00
1.692709999999999937e+00 1.002799999999999914e+00 6.808499999999999552e-01 1.663929999999999909e+00 1.054890000000000105e+00 2.714760000000000062e+00
1.703789999999999916e+00 9.757400000000000517e-01 7.137200000000000211e-01 1.711689999999999934e+00 2.934159999999999879e+00 2.340000000000000066e-03
1.672879999999999923e+00 9.583899999999999642e-01 7.120400000000000063e-01 3.344199999999999839e+00 2.899999999999999800e-03 4.910000000000000302e-03
1.726480000000000015e+00 1.032149999999999901e+00 7.145000000000000240e-01 1.221999999999999996e-02 6.369999999999999794e-03 3.010000000000000089e-03
1.688260000000000094e+00 1.007600000000000051e+00 6.972399999999999709e-01 1.684649999999999981e+00 3.044700000000000184e+00 8.540000000000000716e-03
1.701149999999999940e+00 1.000320000000000098e+00 7.057400000000000340e-01 5.038929999999999687e+00 3.015140000000000153e+00 1.038999999999999993e-02
1.749079999999999968e+00 1.028250000000000108e+00 6.961699999999999555e-01 3.535740000000000105e+00 4.085899999999999643e+00 2.805829999999999824e+00
1.686029999999999918e+00 9.939099999999999602e-01 7.118200000000000083e-01 1.716069999999999984e+00 9.445000000000000062e-01 2.821689999999999809e+00
1.755919999999999925e+00 1.005749999999999922e+00 6.804700000000000193e-01 3.490839999999999943e+00 4.022910000000000430e+00 2.720749999999999780e+00
1.730140000000000011e+00 9.850900000000000212e-01 6.832399999999999585e-01 5.229800000000000004e+00 2.932440000000000158e+00 3.739999999999999835e-03
1.734380000000000033e+00 1.009859999999999980e+00 7.074500000000000233e-01 5.109999999999999959e-03 2.150000000000000001e-03 1.020000000000000073e-03
1.726259999999999906e+00 1.009789999999999965e+00 7.066500000000000004e-01 5.120000000000000419e-03 2.230000000000000211e-03 5.080000000000000314e-03
1.784350000000000103e+00 9.622699999999999587e-01 6.863099999999999756e-01 5.272599999999999731e+00 2.930349999999999788e+00 1.387000000000000038e-02
1.699959999999999916e+00 1.041230000000000100e+00 7.014399999999999524e-01 5.133759999999999657e+00 3.037830000000000030e+00 1.626000000000000015e-02
1.725430000000000019e+00 9.782999999999999474e-01 7.139400000000000190e-01 3.528439999999999799e+00 3.964420000000000055e+00 2.884910000000000085e+00
1.723840000000000039e+00 9.796500000000000208e-01 6.877299999999999525e-01 1.777549999999999963e+00 9.366700000000000026e-01 2.815479999999999983e+00
1.738820127643577740e+00 1.003909892759158762e+00 7.098698389999866798e-01 3.477640510573535959e+00 4.015629847036541911e+00 2.839479591000280134e+00
1.782180000000000097e+00 9.827500000000000124e-01 7.016900000000000359e-01 1.816130000000000022e+00 9.175400000000000222e-01 2.811100000000000154e+00
1.718820000000000014e+00 9.946800000000000086e-01 7.022100000000000009e-01 1.665000000000000036e+00 3.032639999999999780e+00 2.939999999999999905e-03
1.738080000000000069e+00 9.939500000000000002e-01 6.958400000000000141e-01 5.212430000000000341e+00 1.017589999999999995e+00 2.771819999999999951e+00
1.829469999999999930e+00 9.717400000000000482e-01 7.007600000000000495e-01 3.749969999999999803e+00 3.917260000000000186e+00 2.772339999999999804e+00
1.766569999999999974e+00 9.962499999999999689e-01 6.943599999999999772e-01 5.324740000000000251e+00 1.015849999999999920e+00 2.819059999999999899e+00
1.721309999999999896e+00 1.004780000000000006e+00 7.045000000000000151e-01 5.158780000000000143e+00 1.059439999999999937e+00 2.813009999999999788e+00
1.757740000000000080e+00 1.043069999999999942e+00 7.263399999999999856e-01 3.563559999999999839e+00 4.129699999999999704e+00 2.885240000000000027e+00
1.788280000000000092e+00 1.017290000000000028e+00 7.136599999999999611e-01 5.329659999999999620e+00 3.012620000000000076e+00 2.799999999999999972e-03
1.699670000000000014e+00 1.022620000000000084e+00 7.172300000000000342e-01 3.460550000000000015e+00 4.919999999999999894e-03 6.740000000000000331e-03
1.722609999999999975e+00 1.002620000000000067e+00 7.221300000000000496e-01 3.383059999999999956e+00 9.520000000000000684e-03 2.469999999999999973e-03
1.774580000000000046e+00 9.987599999999999811e-01 7.065099999999999714e-01 5.316169999999999618e+00 3.043439999999999923e+00 1.389999999999999916e-02
1.818840000000000012e+00 1.027959999999999985e+00 7.064899999999999514e-01 1.267000000000000071e-02 1.629999999999999939e-03 1.100000000000000066e-03
1.706870000000000109e+00 1.016529999999999934e+00 7.159400000000000208e-01 1.638409999999999922e+00 2.970660000000000078e+00 5.080000000000000314e-03
1.778350000000000097e+00 9.956300000000000150e-01 7.012399999999999745e-01 3.556099999999999817e+00 3.933749999999999858e+00 2.781410000000000160e+00
1.775530000000000053e+00 1.026420000000000110e+00 7.113399999999999723e-01 3.603460000000000107e+00 4.067809999999999704e+00 2.857330000000000148e+00
1.772590000000000110e+00 1.000950000000000006e+00 7.065599999999999659e-01 3.574009999999999909e+00 1.298999999999999981e-02 6.349999999999999742e-03
1.684639999999999915e+00 9.857700000000000351e-01 7.131499999999999506e-01 3.388189999999999813e+00 1.165000000000000063e-02 7.130000000000000053e-03
1.796019999999999950e+00 9.648499999999999854e-01 7.178299999999999681e-01 1.829420000000000046e+00 9.405900000000000372e-01 2.828809999999999825e+00
1.743810000000000082e+00 1.057339999999999947e+00 7.248799999999999688e-01 1.688660000000000050e+00 3.081420000000000048e+00 3.599999999999999901e-03
1.718630000000000102e+00 1.000269999999999992e+00 7.087299999999999711e-01 3.436069999999999958e+00 4.009879999999999889e+00 2.882200000000000095e+00
