-1.838317346999999913e+01
-1.837097817000000077e+01
-1.830746857000000105e+01
-1.833027169000000001e+01
-1.837921469999999857e+01
-1.832744465000000034e+01
-1.833797360000000154e+01
-1.824709584000000007e+01
-1.831929845999999884e+01
-1.840062242999999853e+01
-1.836620586000000088e+01
-1.839206765000000132e+01
-1.826086370000000159e+01
-1.834418608000000006e+01
-1.837383368000000061e+01
-1.834180339999999987e+01
-1.839228457999999833e+01
-1.835942872000000037e+01
-1.835494633000000064e+01
-1.834922398999999871e+01
-1.830769968999999975e+01
-1.841146871000000118e+01
-1.839990381000000141e+01
-1.838877164999999891e+01
-1.837329483999999979e+01
-1.838951816000000150e+01
-1.838235922999999872e+01
-1.837934376999999841e+01
-1.837298522000000034e+01
-1.837899107000000143e+01
-1.835529308999999998e+01
-1.833986688999999970e+01
-1.837813951000000046e+01
-1.838328669999999931e+01
-1.835986112999999875e+01
-1.839674673000000027e+01
-1.834235941000000025e+01
-1.836746600000000029e+01
-1.840926718000000051e+01
-1.840596844999999959e+01
-1.839203592000000143e+01
-1.837694747999999834e+01
-1.841042489000000160e+01
-1.840636771000000138e+01
-1.840152395999999868e+01
-1.837300306999999933e+01
-1.839176334000000068e+01
-1.837051768999999979e+01
-1.838222770000000139e+01
-1.839290490999999861e+01
-1.835120625000000061e+01
-1.839150919000000073e+01
-1.838005920999999887e+01
-1.836705111999999929e+01
-1.835248689000000155e+01
-1.837002371999999895e+01
-1.839214275000000143e+01
-1.837445789999999946e+01
-1.836039823000000126e+01
-1.835661856000000114e+01
-1.838684784000000150e+01
-1.839652956000000117e+01
-1.837424564000000160e+01
-1.777677531999999871e+01
-1.777560779999999951e+01
-1.779573196999999851e+01
-1.772772167999999837e+01
-1.767978830999999929e+01
-1.769166815999999898e+01
-1.774231311999999861e+01
-1.770786567000000034e+01
-1.778579373000000174e+01
-1.770279929999999879e+01
-1.767957566000000114e+01
-1.777745167999999865e+01
-1.766194057999999956e+01
-1.776942057000000119e+01
-1.776783464000000023e+01
-1.770778028999999876e+01
-1.775833546000000140e+01
-1.772330248999999824e+01
-1.768349132999999895e+01
-1.768674981999999929e+01
-1.771671119999999888e+01
-1.780195999000000029e+01
-1.780282526999999959e+01
-1.778711975999999950e+01
-1.778302101999999962e+01
-1.778318824999999848e+01
-1.773707956000000152e+01
-1.778821196999999898e+01
-1.775263951999999890e+01
-1.779594666999999930e+01
-1.778374597999999907e+01
-1.777548987000000125e+01
-1.779975512000000037e+01
-1.779384137999999993e+01
-1.777044581999999906e+01
-1.778029470999999972e+01
-1.780294772999999964e+01
-1.779319578000000135e+01
-1.776748918999999916e+01
-1.779004023999999973e+01
-1.778273606000000129e+01
-1.779184821000000127e+01
-1.780506434000000127e+01
-1.779679017000000130e+01
-1.778406912999999889e+01
-1.777696733999999879e+01
-1.777357470999999833e+01
-1.778662986999999873e+01
-1.780181111999999999e+01
-1.777450139999999834e+01
-1.777689068999999833e+01
-1.778074678000000119e+01
-1.778429330999999891e+01
-1.778628502000000111e+01
-1.778279507999999964e+01
-1.779222161999999940e+01
-1.778998393999999905e+01
-1.776946893999999944e+01
-1.776966106000000067e+01
-1.777188583999999949e+01
-1.779465088999999978e+01
-1.774372647999999941e+01
-1.777888955999999965e+01
