0.000000000000000000e+00 0.000000000000000000e+00 0.000000000000000000e+00 0.000000000000000000e+00 0.000000000000000000e+00 0.000000000000000000e+00
3.567700000000000038e-02 6.589899999999999924e-02 -1.366999999999999986e-02 -3.567700000000000038e-02 -6.589899999999999924e-02 1.366999999999999986e-02
-1.212200000000000083e-02 -2.107399999999999898e-02 1.214200000000000002e-02 1.212200000000000083e-02 2.107399999999999898e-02 -1.214200000000000002e-02
-5.182099999999999901e-02 7.381699999999999373e-02 -5.439999999999999697e-02 5.182099999999999901e-02 -7.381699999999999373e-02 5.439999999999999697e-02
-2.856300000000000158e-02 -2.492999999999999990e-03 3.201299999999999979e-02 2.856300000000000158e-02 2.492999999999999990e-03 -3.201299999999999979e-02
-2.358499999999999833e-02 -5.242000000000000132e-02 -6.333600000000000341e-02 2.358499999999999833e-02 5.242000000000000132e-02 6.333600000000000341e-02
2.432999999999999833e-03 -2.378900000000000112e-02 -2.770099999999999993e-02 -2.432999999999999833e-03 2.378900000000000112e-02 2.770099999999999993e-02
2.836299999999999932e-02 -5.577999999999999625e-03 -1.320000000000000101e-04 -2.836299999999999932e-02 5.577999999999999625e-03 1.320000000000000101e-04
1.974899999999999919e-02 2.820000000000000241e-04 3.112499999999999989e-02 -1.974899999999999919e-02 -2.820000000000000241e-04 -3.112499999999999989e-02
-4.550799999999999984e-02 2.109999999999999896e-03 4.314400000000000179e-02 4.550799999999999984e-02 -2.109999999999999896e-03 -4.314400000000000179e-02
-2.370200000000000085e-02 -3.875800000000000078e-02 -2.708500000000000144e-02 2.370200000000000085e-02 3.875800000000000078e-02 2.708500000000000144e-02
-2.552400000000000155e-02 1.006800000000000056e-02 2.585199999999999998e-02 2.552400000000000155e-02 -1.006800000000000056e-02 -2.585199999999999998e-02
3.348799999999999694e-02 -1.670800000000000063e-02 -1.563199999999999867e-01 -3.348799999999999694e-02 1.670800000000000063e-02 1.563199999999999867e-01
-4.891299999999999815e-02 -1.721299999999999913e-02 1.408300000000000003e-02 4.891299999999999815e-02 1.721299999999999913e-02 -1.408300000000000003e-02
7.255599999999999550e-02 2.737200000000000050e-02 -2.113999999999999994e-03 -7.255599999999999550e-02 -2.737200000000000050e-02 2.113999999999999994e-03
3.242400000000000143e-02 -1.309500000000000074e-02 -2.962700000000000056e-02 -3.242400000000000143e-02 1.309500000000000074e-02 2.962700000000000056e-02
-3.072000000000000078e-03 4.566999999999999879e-03 1.399999999999999979e-05 3.072000000000000078e-03 -4.566999999999999879e-03 -1.399999999999999979e-05
6.539599999999999580e-02 -2.105100000000000027e-02 -4.177499999999999963e-02 -6.539599999999999580e-02 2.105100000000000027e-02 4.177499999999999963e-02
-6.246899999999999675e-02 -2.660000000000000146e-04 -1.917100000000000054e-02 6.246899999999999675e-02 2.660000000000000146e-04 1.917100000000000054e-02
-7.494999999999999926e-03 -3.037199999999999969e-02 -1.049899999999999965e-02 7.494999999999999926e-03 3.037199999999999969e-02 1.049899999999999965e-02
-3.734099999999999919e-02 1.256600000000000078e-02 2.543399999999999828e-02 3.734099999999999919e-02 -1.256600000000000078e-02 -2.543399999999999828e-02
0.000000000000000000e+00 0.000000000000000000e+00 0.000000000000000000e+00 0.000000000000000000e+00 0.000000000000000000e+00 0.000000000000000000e+00
-6.134699999999999875e-02 3.098000000000000059e-03 7.853000000000000605e-03 6.134699999999999875e-02 -3.098000000000000059e-03 -7.853000000000000605e-03
-6.285599999999999521e-02 3.812000000000000111e-02 -2.228000000000000119e-02 6.285599999999999521e-02 -3.812000000000000111e-02 2.228000000000000119e-02
2.594300000000000078e-02 -4.827000000000000041e-02 -3.887000000000000177e-02 -2.594300000000000078e-02 4.827000000000000041e-02 3.887000000000000177e-02
1.980799999999999922e-02 3.495999999999999976e-03 -3.420800000000000229e-02 -1.980799999999999922e-02 -3.495999999999999976e-03 3.420800000000000229e-02
-3.506000000000000002e-03 5.434100000000000041e-02 -3.020499999999999921e-02 3.506000000000000002e-03 -5.434100000000000041e-02 3.020499999999999921e-02
4.668900000000000133e-02 1.146400000000000023e-02 2.508000000000000160e-02 -4.668900000000000133e-02 -1.146400000000000023e-02 -2.508000000000000160e-02
1.350200000000000011e-02 -2.301599999999999827e-02 3.227999999999999967e-03 -1.350200000000000011e-02 2.301599999999999827e-02 -3.227999999999999967e-03
1.645200000000000135e-02 -3.388200000000000239e-02 -9.171000000000000332e-03 -1.645200000000000135e-02 3.388200000000000239e-02 9.171000000000000332e-03
-4.299100000000000144e-02 1.749300000000000160e-02 -3.326199999999999990e-02 4.299100000000000144e-02 -1.749300000000000160e-02 3.326199999999999990e-02
7.451399999999999690e-02 8.870200000000000307e-02 -1.260930000000000106e-01 -7.451399999999999690e-02 -8.870200000000000307e-02 1.260930000000000106e-01
1.261999999999999927e-02 -1.462699999999999938e-02 3.319099999999999828e-02 -1.261999999999999927e-02 1.462699999999999938e-02 -3.319099999999999828e-02
7.023999999999999862e-03 -2.370099999999999985e-02 1.248499999999999957e-02 -7.023999999999999862e-03 2.370099999999999985e-02 -1.248499999999999957e-02
-2.494400000000000089e-02 3.642800000000000205e-02 1.200900000000000058e-02 2.494400000000000089e-02 -3.642800000000000205e-02 -1.200900000000000058e-02
-6.594000000000000035e-03 8.713999999999999524e-03 -9.773999999999999702e-03 6.594000000000000035e-03 -8.713999999999999524e-03 9.773999999999999702e-03
2.321000000000000146e-03 -3.807900000000000174e-02 -7.194699999999999707e-02 -2.321000000000000146e-03 3.807900000000000174e-02 7.194699999999999707e-02
9.410999999999999227e-03 1.773900000000000129e-02 5.542400000000000104e-02 -9.410999999999999227e-03 -1.773900000000000129e-02 -5.542400000000000104e-02
5.987000000000000134e-03 5.390600000000000253e-02 3.196999999999999842e-02 -5.987000000000000134e-03 -5.390600000000000253e-02 -3.196999999999999842e-02
-2.626799999999999968e-02 -3.702500000000000235e-02 -5.511000000000000273e-03 2.626799999999999968e-02 3.702500000000000235e-02 5.511000000000000273e-03
-4.166999999999999697e-03 7.150000000000000322e-04 -1.289799999999999974e-02 4.166999999999999697e-03 -7.150000000000000322e-04 1.289799999999999974e-02
-1.085599999999999933e-02 -2.419599999999999876e-02 -2.259999999999999910e-04 1.085599999999999933e-02 2.419599999999999876e-02 2.259999999999999910e-04
0.000000000000000000e+00 0.000000000000000000e+00 0.000000000000000000e+00 0.000000000000000000e+00 0.000000000000000000e+00 0.000000000000000000e+00
5.529599999999999793e-02 -1.444800000000000077e-02 -1.211500000000000077e-02 -5.529599999999999793e-02 1.444800000000000077e-02 1.211500000000000077e-02
-1.614999999999999899e-03 4.963000000000000397e-03 -2.436699999999999977e-02 1.614999999999999899e-03 -4.963000000000000397e-03 2.436699999999999977e-02
2.555599999999999886e-02 -3.188799999999999968e-02 -1.537200000000000025e-02 -2.555599999999999886e-02 3.188799999999999968e-02 1.537200000000000025e-02
-4.478300000000000336e-02 -3.955000000000000182e-03 5.677100000000000202e-02 4.478300000000000336e-02 3.955000000000000182e-03 -5.677100000000000202e-02
-2.845599999999999866e-02 -9.044999999999999221e-03 -3.465000000000000198e-03 2.845599999999999866e-02 9.044999999999999221e-03 3.465000000000000198e-03
2.821699999999999903e-02 -3.734099999999999919e-02 6.298999999999999912e-03 -2.821699999999999903e-02 3.734099999999999919e-02 -6.298999999999999912e-03
-4.969999999999999592e-03 -2.827999999999999958e-02 -2.035599999999999909e-02 4.969999999999999592e-03 2.827999999999999958e-02 2.035599999999999909e-02
1.189600000000000032e-02 5.692699999999999844e-02 5.569999999999999864e-04 -1.189600000000000032e-02 -5.692699999999999844e-02 -5.569999999999999864e-04
-3.094799999999999982e-02 5.934600000000000292e-02 -3.818499999999999672e-02 3.094799999999999982e-02 -5.934600000000000292e-02 3.818499999999999672e-02
4.491000000000000200e-03 -1.212200000000000083e-02 1.324700000000000009e-02 -4.491000000000000200e-03 1.212200000000000083e-02 -1.324700000000000009e-02
1.351300000000000071e-02 1.743300000000000058e-02 -5.715999999999999727e-03 -1.351300000000000071e-02 -1.743300000000000058e-02 5.715999999999999727e-03
-3.722600000000000214e-02 -3.589500000000000329e-02 3.172500000000000320e-02 3.722600000000000214e-02 3.589500000000000329e-02 -3.172500000000000320e-02
2.305000000000000191e-03 -1.163600000000000051e-02 2.412000000000000081e-03 -2.305000000000000191e-03 1.163600000000000051e-02 -2.412000000000000081e-03
4.272299999999999709e-02 2.100799999999999890e-02 5.063700000000000145e-02 -4.272299999999999709e-02 -2.100799999999999890e-02 -5.063700000000000145e-02
1.565999999999999901e-03 1.900000000000000105e-04 -4.309000000000000330e-03 -1.565999999999999901e-03 -1.900000000000000105e-04 4.309000000000000330e-03
-3.924600000000000311e-02 2.345399999999999915e-02 2.953199999999999922e-02 3.924600000000000311e-02 -2.345399999999999915e-02 -2.953199999999999922e-02
-1.292699999999999926e-02 8.004999999999999963e-03 2.477199999999999888e-02 1.292699999999999926e-02 -8.004999999999999963e-03 -2.477199999999999888e-02
-1.758099999999999941e-02 -2.740499999999999881e-02 -1.916700000000000001e-02 1.758099999999999941e-02 2.740499999999999881e-02 1.916700000000000001e-02
2.199600000000000166e-02 2.852700000000000027e-02 9.754999999999999782e-03 -2.199600000000000166e-02 -2.852700000000000027e-02 -9.754999999999999782e-03
1.019300000000000067e-02 -1.451999999999999992e-02 -1.515000000000000071e-03 -1.019300000000000067e-02 1.451999999999999992e-02 1.515000000000000071e-03
-2.000000226180809018e-06 -1.999999884775173549e-06 -9.999997780879791911e-07 2.000000226180809018e-06 1.999999884775173549e-06 9.999997780879791911e-07
-2.164780000000000038e-01 1.394160000000000121e-01 2.370039999999999925e-01 2.164780000000000038e-01 -1.394160000000000121e-01 -2.370039999999999925e-01
-1.213329999999999964e-01 -1.831820000000000115e-01 -1.032100000000000031e-02 1.213329999999999964e-01 1.831820000000000115e-01 1.032100000000000031e-02
-3.245060000000000167e-01 -1.572489999999999999e-01 -1.055169999999999997e-01 3.245060000000000167e-01 1.572489999999999999e-01 1.055169999999999997e-01
5.273499999999999716e-02 -3.306310000000000082e-01 -4.696659999999999724e-01 -5.273499999999999716e-02 3.306310000000000082e-01 4.696659999999999724e-01
-1.724519999999999942e-01 2.061840000000000062e-01 1.555239999999999956e-01 1.724519999999999942e-01 -2.061840000000000062e-01 -1.555239999999999956e-01
2.398619999999999919e-01 2.060950000000000004e-01 1.796500000000000041e-01 -2.398619999999999919e-01 -2.060950000000000004e-01 -1.796500000000000041e-01
7.596999999999999587e-03 -1.856309999999999905e-01 -4.200599999999999890e-01 -7.596999999999999587e-03 1.856309999999999905e-01 4.200599999999999890e-01
-4.493599999999999678e-02 3.390549999999999953e-01 1.206959999999999977e-01 4.493599999999999678e-02 -3.390549999999999953e-01 -1.206959999999999977e-01
-2.512579999999999814e-01 -3.064540000000000042e-01 -2.964599999999999874e-02 2.512579999999999814e-01 3.064540000000000042e-01 2.964599999999999874e-02
-1.633000000000000076e-02 -5.329739999999999478e-01 -2.059070000000000067e-01 1.633000000000000076e-02 5.329739999999999478e-01 2.059070000000000067e-01
3.914900000000000324e-02 1.845070000000000043e-01 1.787239999999999940e-01 -3.914900000000000324e-02 -1.845070000000000043e-01 -1.787239999999999940e-01
-4.180000000000000230e-04 -3.407700000000000312e-02 -1.409930000000000072e-01 4.180000000000000230e-04 3.407700000000000312e-02 1.409930000000000072e-01
1.904649999999999954e-01 -5.072999999999999732e-02 3.912700000000000067e-01 -1.904649999999999954e-01 5.072999999999999732e-02 -3.912700000000000067e-01
-2.597679999999999989e-01 -5.187770000000000437e-01 1.723290000000000100e-01 2.597679999999999989e-01 5.187770000000000437e-01 -1.723290000000000100e-01
6.537500000000000255e-02 -4.101060000000000261e-01 -2.290100000000000122e-02 -6.537500000000000255e-02 4.101060000000000261e-01 2.290100000000000122e-02
-2.534150000000000014e-01 3.106470000000000065e-01 -2.237530000000000074e-01 2.534150000000000014e-01 -3.106470000000000065e-01 2.237530000000000074e-01
1.461600000000000121e-01 -1.469850000000000045e-01 -4.269850000000000034e-01 -1.461600000000000121e-01 1.469850000000000045e-01 4.269850000000000034e-01
-1.908839999999999981e-01 3.617079999999999740e-01 -4.523949999999999916e-01 1.908839999999999981e-01 -3.617079999999999740e-01 4.523949999999999916e-01
-4.518360000000000154e-01 3.885000000000000259e-02 2.601060000000000039e-01 4.518360000000000154e-01 -3.885000000000000259e-02 -2.601060000000000039e-01
8.514700000000000046e-02 -5.532499999999999918e-02 -2.244039999999999924e-01 -8.514700000000000046e-02 5.532499999999999918e-02 2.244039999999999924e-01
-1.469559267901182872e-13 -1.000000043428579194e-06 -9.999999565714082214e-07 1.469559267901182872e-13 1.000000043428579194e-06 9.999999565714082214e-07
-6.141900000000000137e-02 5.655799999999999716e-02 5.607999999999999791e-02 6.141900000000000137e-02 -5.655799999999999716e-02 -5.607999999999999791e-02
1.489599999999999952e-02 1.128760000000000041e-01 7.213400000000000367e-02 -1.489599999999999952e-02 -1.128760000000000041e-01 -7.213400000000000367e-02
7.658900000000000430e-02 -4.063300000000000245e-02 -5.107600000000000334e-02 -7.658900000000000430e-02 4.063300000000000245e-02 5.107600000000000334e-02
1.129870000000000041e-01 -1.398099999999999898e-01 -1.664170000000000094e-01 -1.129870000000000041e-01 1.398099999999999898e-01 1.664170000000000094e-01
3.054660000000000153e-01 -2.312960000000000016e-01 -4.148149999999999893e-01 -3.054660000000000153e-01 2.312960000000000016e-01 4.148149999999999893e-01
1.612069999999999892e-01 -1.029299999999999937e-01 2.599380000000000024e-01 -1.612069999999999892e-01 1.029299999999999937e-01 -2.599380000000000024e-01
-2.232200000000000156e-02 3.397379999999999844e-01 4.148339999999999805e-01 2.232200000000000156e-02 -3.397379999999999844e-01 -4.148339999999999805e-01
6.776400000000000479e-02 1.380039999999999878e-01 -1.929319999999999924e-01 -6.776400000000000479e-02 -1.380039999999999878e-01 1.929319999999999924e-01
1.114379999999999954e-01 3.091459999999999764e-01 5.167900000000000271e-02 -1.114379999999999954e-01 -3.091459999999999764e-01 -5.167900000000000271e-02
-2.680449999999999777e-01 2.154679999999999929e-01 1.820140000000000091e-01 2.680449999999999777e-01 -2.154679999999999929e-01 -1.820140000000000091e-01
-5.338699999999999696e-02 -1.686209999999999931e-01 -3.746800000000000130e-02 5.338699999999999696e-02 1.686209999999999931e-01 3.746800000000000130e-02
3.405909999999999771e-01 3.187999999999999862e-02 -4.249800000000000105e-02 -3.405909999999999771e-01 -3.187999999999999862e-02 4.249800000000000105e-02
5.133599999999999969e-02 -5.026800000000000018e-02 -5.182470000000000132e-01 -5.133599999999999969e-02 5.026800000000000018e-02 5.182470000000000132e-01
6.942399999999999960e-02 -3.450750000000000206e-01 3.790500000000000119e-02 -6.942399999999999960e-02 3.450750000000000206e-01 -3.790500000000000119e-02
4.548100000000000059e-02 -8.963300000000000434e-02 3.061600000000000085e-02 -4.548100000000000059e-02 8.963300000000000434e-02 -3.061600000000000085e-02
-1.007379999999999942e-01 2.224180000000000046e-01 6.062200000000000227e-02 1.007379999999999942e-01 -2.224180000000000046e-01 -6.062200000000000227e-02
-2.175819999999999976e-01 -1.211030000000000023e-01 -1.415269999999999861e-01 2.175819999999999976e-01 1.211030000000000023e-01 1.415269999999999861e-01
-2.098200000000000065e-02 2.569400000000000156e-02 3.556849999999999734e-01 2.098200000000000065e-02 -2.569400000000000156e-02 -3.556849999999999734e-01
-1.234729999999999994e-01 1.055839999999999973e-01 3.180379999999999874e-01 1.234729999999999994e-01 -1.055839999999999973e-01 -3.180379999999999874e-01
-1.679800000000000043e-02 2.929059999999999997e-01 1.392950000000000021e-01 1.679800000000000043e-02 -2.929059999999999997e-01 -1.392950000000000021e-01
-7.936413688172118290e-14 -9.999999999999959313e-07 4.333063810301200851e-14 7.936413688172118290e-14 9.999999999999959313e-07 -4.333063810301200851e-14
-1.630850000000000077e-01 3.288300000000000251e-02 -5.938700000000000229e-02 1.630850000000000077e-01 -3.288300000000000251e-02 5.938700000000000229e-02
2.044169999999999876e-01 8.484500000000000375e-02 1.573509999999999909e-01 -2.044169999999999876e-01 -8.484500000000000375e-02 -1.573509999999999909e-01
-2.150579999999999992e-01 3.241800000000000237e-02 -1.220320000000000016e-01 2.150579999999999992e-01 -3.241800000000000237e-02 1.220320000000000016e-01
-1.802809999999999968e-01 -1.516010000000000135e-01 -2.977389999999999759e-01 1.802809999999999968e-01 1.516010000000000135e-01 2.977389999999999759e-01
1.182279999999999998e-01 -2.594179999999999819e-01 1.888000000000000095e-02 -1.182279999999999998e-01 2.594179999999999819e-01 -1.888000000000000095e-02
-3.883600000000000246e-02 3.523000000000000090e-03 -5.344900000000000345e-02 3.883600000000000246e-02 -3.523000000000000090e-03 5.344900000000000345e-02
4.854999999999999941e-03 -1.283340000000000036e-01 -2.139599999999999835e-02 -4.854999999999999941e-03 1.283340000000000036e-01 2.139599999999999835e-02
-1.533029999999999948e-01 -1.643979999999999886e-01 5.243699999999999750e-02 1.533029999999999948e-01 1.643979999999999886e-01 -5.243699999999999750e-02
1.111290000000000056e-01 4.094999999999999682e-03 2.050480000000000080e-01 -1.111290000000000056e-01 -4.094999999999999682e-03 -2.050480000000000080e-01
-2.129880000000000106e-01 6.069399999999999795e-02 1.576049999999999951e-01 2.129880000000000106e-01 -6.069399999999999795e-02 -1.576049999999999951e-01
-1.449509999999999965e-01 9.712800000000000600e-02 1.342949999999999977e-01 1.449509999999999965e-01 -9.712800000000000600e-02 -1.342949999999999977e-01
-1.858009999999999939e-01 -1.140739999999999948e-01 -1.833879999999999955e-01 1.858009999999999939e-01 1.140739999999999948e-01 1.833879999999999955e-01
1.293410000000000115e-01 -2.083589999999999887e-01 -2.867899999999999963e-02 -1.293410000000000115e-01 2.083589999999999887e-01 2.867899999999999963e-02
-2.329680000000000084e-01 -2.718559999999999865e-01 -2.419370000000000132e-01 2.329680000000000084e-01 2.718559999999999865e-01 2.419370000000000132e-01
-2.082579999999999987e-01 6.651500000000000468e-02 2.901600000000000013e-02 2.082579999999999987e-01 -6.651500000000000468e-02 -2.901600000000000013e-02
2.208799999999999999e-02 1.145029999999999937e-01 -8.685199999999999865e-02 -2.208799999999999999e-02 -1.145029999999999937e-01 8.685199999999999865e-02
3.347800000000000081e-02 3.249509999999999899e-01 4.071359999999999979e-01 -3.347800000000000081e-02 -3.249509999999999899e-01 -4.071359999999999979e-01
-2.514500000000000068e-02 -7.858300000000000007e-02 -1.512969999999999871e-01 2.514500000000000068e-02 7.858300000000000007e-02 1.512969999999999871e-01
3.203000000000000118e-03 -8.616100000000000148e-02 1.138060000000000044e-01 -3.203000000000000118e-03 8.616100000000000148e-02 -1.138060000000000044e-01
9.437099999999999655e-02 1.200110000000000066e-01 1.499669999999999892e-01 -9.437099999999999655e-02 -1.200110000000000066e-01 -1.499669999999999892e-01
