-5.777913307799999529e+02
-5.777301896999999826e+02
-5.777299407900000006e+02
-5.777388411900000165e+02
-5.776744548399999530e+02
-5.752300749400000086e+02
-5.752261554799999885e+02
-5.751822431299999607e+02
-5.752112905599999522e+02
-5.751651199699999779e+02
-5.751814192900000080e+02
-5.752400773199999549e+02
-5.751029831199999762e+02
-5.751862848800000165e+02
-5.751671931399999949e+02
