2.442899999999999933e-02 5.844699999999999895e-02 -2.065140000000000031e-01 1.022499999999999971e-02 -9.341000000000000345e-03 4.697299999999999809e-01 6.900799999999999990e-02 -8.385000000000000092e-03 -2.055770000000000097e-01 1.586879999999999957e-01 9.497999999999999499e-02 2.294300000000000159e-02 -2.694999999999999913e-03 7.029999999999999791e-03 -2.045500000000000096e-02 9.648500000000000132e-02 4.788699999999999901e-02 -2.060389999999999999e-01 -3.202850000000000197e+00 1.837085000000000079e+00 1.201481999999999939e+00 1.949000000000000038e-02 -2.113200000000000148e-02 -9.462150000000000283e-01 7.564000000000000411e-03 -3.694779000000000035e+00 1.160514999999999963e+00 7.487999999999999864e-03 3.094500000000000028e-02 -9.087929999999999620e-01 5.148900000000000005e-02 3.437599999999999684e-02 9.533080000000000442e-01 -4.974000000000000123e-03 1.985999999999999918e-03 -9.527569999999999650e-01 -1.579000000000000108e-03 -8.912200000000000677e-02 -1.018192999999999904e+00 -1.497999999999999983e-03 -1.875699999999999937e-02 1.015287999999999968e+00 5.171100000000000002e-02 4.980899999999999911e-02 1.183200000000000050e-02 9.962000000000000369e-03 2.572500000000000134e-02 -4.106000000000000275e-03 -5.796899999999999969e-02 3.605300000000000171e-02 -3.677199999999999913e-02 4.605999999999999851e-03 1.939999999999999993e-04 3.402000000000000163e-02 3.199902999999999942e+00 1.826043000000000083e+00 1.237805000000000044e+00 -2.866099999999999898e-02 -3.576300000000000312e-02 -9.780370000000000452e-01 -6.873700000000000643e-02 4.207400000000000029e-02 -1.672500000000000028e-02 -2.717699999999999977e-02 1.793799999999999908e-02 2.429299999999999862e-02 -1.531700000000000075e-02 -6.722999999999999809e-02 -3.883600000000000246e-02 -1.544599999999999966e-02 -1.885300000000000170e-02 4.534599999999999742e-02 -4.275899999999999840e-02 -1.747900000000000148e-02 -1.770162000000000013e+00 -7.368000000000000417e-03 6.955400000000000471e-02 9.597539999999999960e-01 3.024252000000000162e+00 1.744699000000000000e+00 2.017599999999999949e-02 -2.248100000000000098e-02 -8.495500000000000274e-02 -1.102500000000000008e-02 3.020484000000000169e+00 1.734461999999999948e+00 2.080399999999999958e-02 -1.138880000000000031e-01 -7.333599999999999841e-02 -1.239700000000000003e-02 -3.175898000000000110e+00 -1.684282999999999975e+00 1.813800000000000134e-02 3.139934999999999921e+00 -1.700806000000000040e+00 -1.610299999999999926e-02 -3.072691999999999979e+00 -1.837340999999999891e+00 1.843300000000000147e-02 1.230499999999999997e-02 -4.311999999999999861e-03 -1.087699999999999952e-02 -3.122259999999999813e+00 -1.881963999999999970e+00 -1.961099999999999996e-02 7.037599999999999412e-02 3.578816999999999915e+00 1.840200000000000169e-02 3.222913000000000139e+00 -1.663256999999999985e+00 1.651700000000000043e-02 -3.127991000000000188e+00 -1.707178000000000084e+00 -1.595099999999999990e-02 -3.289500000000000063e-02 -2.306899999999999923e-02 -1.103000000000000031e-03 2.402000000000000055e-03 3.126400000000000012e-02 -1.259999999999999998e-04 9.843699999999999672e-02 3.598376000000000019e+00 1.736100000000000143e-02 3.896899999999999670e-02 -9.272800000000000487e-02 -1.215300000000000061e-02 -2.101999999999999980e-01 6.010299999999999671e-02 4.509830000000000227e-01 1.255599999999999945e-02 -1.404099999999999966e-02 -1.151963000000000070e+00 2.972360000000000002e-01 1.580799999999999914e-02 8.878669999999999618e-01 2.298999999999999828e-03 -4.138859999999999761e-01 4.493179999999999952e-01 3.538080000000000114e-01 2.449209999999999998e-01 -8.944280000000000008e-01 1.425410000000000010e-01 2.628699999999999926e-01 8.595009999999999595e-01 -6.384900000000000297e-02 1.999890000000000001e-01 -3.255600000000000160e-02 3.700510000000000188e-01 1.952049999999999896e-01 -8.662309999999999732e-01 -9.052799999999999736e-02 -2.580259999999999776e-01 3.281300000000000189e-02 -1.529570000000000096e-01 -2.599899999999999989e-01 -4.689299999999999718e-02 1.870600000000000041e-02 -4.247580000000000244e-01 3.921299999999999786e-02 -2.498039999999999983e-01 -1.474959999999999882e-01 -7.889999999999999878e-04 -2.778439999999999799e-01 -4.113439999999999874e-01 4.548719999999999986e-01 2.205439999999999900e-01 -4.920000000000000068e-02 -8.172000000000000444e-03 -3.366319999999999868e-01 -1.796059999999999879e-01 -4.612510000000000221e-01 -2.600310000000000121e-01 5.290500000000000064e-02 3.073800000000000143e-02 -3.650630000000000264e-01 2.078010000000000135e-01 -1.719499999999999848e-02 6.053900000000000253e-02 1.945560000000000067e-01 -3.058100000000000054e-02 -3.652790000000000203e-01 2.068669999999999953e-01 2.221499999999999864e-02 1.388030000000000097e-01 -2.601910000000000056e-01 -7.255200000000000538e-02 2.119530000000000025e-01 6.092999999999999805e-02 4.505049999999999888e-01 -3.155800000000000272e-02 -4.247319999999999984e-01 6.561200000000000365e-02 2.301960000000000117e-01 5.924100000000000199e-02 -1.196000000000000014e-03 -1.691399999999999848e-02 1.120900000000000021e-02 -9.065700000000000147e-02 -2.190080000000000082e-01 -4.734300000000000314e-02 -8.012000000000000025e-03 -1.708000000000000143e-02 1.088700000000000084e-02 9.616600000000000148e-02 1.695510000000000073e-01 1.703780000000000017e-01 -9.539999999999999869e-04 2.297919999999999963e-01 4.473820000000000019e-01 3.997910000000000075e-01 2.439000000000000196e-03 -2.534499999999999947e-02 -8.132999999999999605e-03 -2.539999999999999940e-04 3.812309999999999865e-01 -4.056480000000000086e-01
-1.496499999999999914e-02 1.124089999999999950e-01 3.950300000000000339e-02 -1.522300000000000042e-02 -5.085300000000000237e-02 2.009549999999999947e-01 -1.466490000000000016e-01 -1.636620000000000019e-01 -1.576269999999999893e-01 -1.261670000000000014e-01 1.784109999999999863e-01 -2.243759999999999921e-01 -5.000000000000000104e-04 -1.148639999999999939e-01 -1.625000000000000056e-02 -1.127300000000000003e-02 3.734300000000000119e-02 1.583680000000000088e-01 -3.276168999999999887e+00 1.914824000000000082e+00 1.228857000000000088e+00 3.266993999999999954e+00 1.850292999999999966e+00 -1.211829999999999963e+00 -3.062034000000000145e+00 -1.774723000000000050e+00 -2.661300000000000124e-02 4.778299999999999909e-02 5.772999999999999660e-02 2.533900000000000041e-02 7.081300000000000094e-02 -3.517017000000000060e+00 -2.438000000000000063e-03 6.091000000000000060e-03 4.249700000000000005e-02 -2.615999999999999836e-03 -5.213000000000000272e-02 -8.289799999999999947e-02 -9.566799999999999748e-01 -3.255841999999999903e+00 1.842467999999999995e+00 1.206536000000000053e+00 2.224999999999999895e-02 1.992199999999999874e-02 2.654099999999999862e-02 -2.139900000000000135e-02 -3.488316000000000194e+00 -9.678000000000000838e-03 -1.968400000000000011e-02 5.643000000000000099e-02 -1.956999999999999972e-03 6.446599999999999553e-02 3.726700000000000151e-02 -1.030000000000000100e-03 3.063709999999999933e+00 1.754067000000000043e+00 3.231099999999999944e-02 -3.391700000000000270e-02 -1.440500000000000114e-01 -3.141700000000000048e-02 3.297785000000000188e+00 1.871331000000000078e+00 -1.179230000000000000e+00 3.033599999999999838e-02 2.265899999999999859e-02 9.340319999999999734e-01 -3.972099999999999936e-02 -1.595000000000000064e-03 -4.526999999999999774e-03 -7.360400000000000276e-02 5.621600000000000208e-02 7.844999999999999543e-03 3.236368000000000134e+00 -1.876808000000000032e+00 -1.199772000000000061e+00 2.326599999999999849e-02 6.089300000000000268e-02 9.719219999999999526e-01 -4.359400000000000081e-02 -2.503000000000000017e-03 -9.380699999999999594e-01 -3.265267999999999837e+00 -1.925899000000000028e+00 1.206166000000000071e+00 -1.817399999999999918e-02 3.463363999999999887e+00 1.581400000000000167e-02 -3.745099999999999818e-02 -7.560000000000000053e-02 -1.390100000000000016e-02 -3.256444000000000116e+00 -1.852856000000000058e+00 1.198352000000000084e+00 3.329524999999999846e+00 -1.824653000000000080e+00 -1.210493999999999959e+00 7.566999999999999942e-03 7.504600000000000160e-02 2.568099999999999897e-02 -5.470099999999999962e-02 6.204300000000000093e-02 -2.377200000000000146e-02 5.568499999999999839e-02 -1.006390000000000062e-01 -1.236899999999999979e-02 8.288700000000000234e-02 3.528389999999999915e+00 4.152999999999999574e-03 6.756600000000000106e-02 4.683500000000000163e-02 2.037999999999999881e-02 -3.084534000000000109e+00 1.793552999999999953e+00 -1.534300000000000073e-02 1.477599999999999920e-02 1.252200000000000014e-02 -1.480500000000000045e-02 3.053278999999999854e+00 -1.788826999999999945e+00 8.229999999999999469e-03 -4.645699999999999830e-02 -3.814000000000000029e-02 3.653900000000000203e-02 -2.969000000000000111e-02 -7.674200000000000466e-02 -3.874299999999999966e-02 1.270860000000000045e-01 2.333890000000000131e-01 -5.386699999999999822e-02 5.221419999999999950e-01 -6.871499999999999830e-02 -4.854040000000000021e-01 -1.646910000000000041e-01 -2.550850000000000062e-01 -9.343920000000000003e-01 -5.467490000000000405e-01 -3.877599999999999936e-01 9.241800000000000015e-01 -3.654189999999999938e-01 -1.946599999999999997e-01 4.140530000000000044e-01 2.052199999999999858e-02 -2.431810000000000083e-01 -4.429069999999999951e-01 -2.816699999999999759e-01 2.636310000000000042e-01 5.053720000000000434e-01 -2.649460000000000148e-01 -2.926750000000000185e-01 4.408839999999999981e-01 2.050669999999999993e-01 4.898279999999999856e-01 -5.063659999999999828e-01 -4.953279999999999905e-01 4.572199999999999875e-02 5.082140000000000546e-01 -1.545839999999999992e-01 -2.234130000000000005e-01 1.691799999999999901e-02 -2.190519999999999967e-01 -4.458909999999999818e-01 5.256690000000000529e-01 -1.280799999999999994e-01 -7.468400000000000039e-02 5.953800000000000064e-02 3.097679999999999878e-01 -5.127030000000000198e-01 -5.244039999999999813e-01 -1.049899999999999965e-02 -2.033979999999999955e-01 -5.908399999999999763e-02 3.034900000000000098e-02 -1.465799999999999916e-02 4.209000000000000068e-03 6.959100000000000008e-02 2.130410000000000081e-01 -4.373449999999999838e-01 8.412400000000000433e-02 1.938360000000000083e-01 -8.149999999999999693e-04 -2.144760000000000000e-01 4.775610000000000133e-01 4.385430000000000161e-01 5.144720000000000404e-01 4.834700000000000109e-02 -5.010980000000000434e-01 -8.129100000000000215e-02 3.218170000000000197e-01 -9.580720000000000347e-01 2.080480000000000107e-01 3.213349999999999818e-01 4.956720000000000015e-01 -5.403459999999999930e-01 3.718500000000000139e-01 9.547290000000000498e-01 3.593709999999999960e-01 2.215179999999999927e-01 -4.267880000000000007e-01 4.964830000000000076e-01 -1.515299999999999980e-02 -4.975200000000000178e-01 3.719219999999999748e-01 -4.202310000000000212e-01 4.956200000000000050e-01 -3.931199999999999972e-02 1.997170000000000056e-01 -1.714900000000000105e-02 2.221710000000000074e-01 6.742099999999999482e-02 2.593600000000000072e-02 1.895239999999999980e-01 -9.836399999999999311e-02 1.162000000000000012e-02 2.024799999999999864e-02 -1.430500000000000001e-02 -2.993300000000000127e-02
-9.773000000000000437e-03 1.315199999999999980e-01 8.602999999999999536e-03 1.021050000000000013e-01 7.202500000000000568e-02 2.504800000000000082e-02 -4.937000000000000416e-03 -1.194039999999999963e-01 1.682460000000000067e-01 -1.140339999999999965e-01 -5.451999999999999902e-02 -2.054930000000000090e-01 3.612999999999999892e-03 -1.665099999999999913e-02 2.523999999999999855e-02 7.820000000000000345e-04 -6.475999999999999986e-03 -8.800999999999999795e-03 -3.306369999999999809e+00 1.892023000000000010e+00 1.239708000000000032e+00 3.297252999999999989e+00 1.875002000000000058e+00 -1.235454000000000052e+00 -7.010000000000000172e-04 -3.785009000000000068e+00 -1.237189000000000094e+00 -3.698800000000000004e-02 5.855699999999999794e-02 9.767970000000000264e-01 3.156517000000000017e+00 1.789649999999999963e+00 2.228300000000000072e-02 -1.887199999999999989e-02 -7.449000000000000066e-02 -2.201600000000000085e-02 8.784100000000000241e-02 -3.632016999999999829e+00 -2.573399999999999993e-02 -3.020199999999999996e+00 1.821223000000000036e+00 2.662399999999999836e-02 9.728900000000000048e-02 1.296920000000000017e-01 2.537899999999999878e-02 1.009099999999999928e-02 -3.511152000000000051e+00 -2.352999999999999883e-02 -3.114771000000000178e+00 1.804958000000000062e+00 3.304300000000000292e-02 1.061909999999999937e-01 1.130199999999999955e-02 -3.990500000000000297e-02 3.035321999999999854e+00 1.765074999999999950e+00 4.608000000000000117e-03 -8.948799999999999810e-02 -1.131169999999999953e-01 -1.363299999999999929e-02 -9.707100000000000450e-02 4.346200000000000063e-02 5.845500000000000002e-02 2.361299999999999857e-02 3.829999999999999854e-04 -6.237800000000000289e-02 -2.061699999999999991e-02 -1.146550000000000069e-01 -1.018367999999999940e+00 -8.559999999999999554e-02 3.286800000000000138e-02 1.006691999999999920e+00 3.231243000000000087e+00 -1.908951999999999982e+00 -1.214865000000000084e+00 -4.015699999999999825e-02 3.832069000000000170e+00 1.228523000000000032e+00 -1.427430000000000088e-01 -1.479600000000000012e-02 3.578900000000000137e-02 3.058597999999999928e+00 -1.797786000000000106e+00 -1.677999999999999978e-02 4.336099999999999677e-02 3.500809999999999977e+00 5.455999999999999912e-03 -3.108515999999999835e+00 -1.888266999999999918e+00 -1.118399999999999950e-02 -3.250291999999999959e+00 -1.867904999999999927e+00 1.228015999999999996e+00 1.118490000000000040e-01 -4.154399999999999760e-02 -9.995519999999999960e-01 5.569099999999999745e-02 7.421200000000000019e-02 1.160399999999999973e-02 -3.090240000000000098e+00 -1.781938000000000022e+00 -7.544000000000000358e-03 3.593899999999999872e-02 -2.586499999999999910e-02 -1.011940999999999979e+00 -1.394199999999999953e-02 1.023469999999999935e-01 1.016952000000000078e+00 1.342999999999999923e-02 1.046890000000000043e-01 2.196599999999999941e-02 -7.640800000000000369e-02 -2.259999999999999856e-02 -1.994299999999999892e-02 8.333200000000000329e-02 -9.758899999999999519e-02 -4.375799999999999829e-02 2.736600000000000144e-02 3.590292999999999957e+00 4.396200000000000108e-02 -7.328999999999999404e-02 1.159699999999999967e-02 5.965899999999999676e-02 3.133278999999999925e+00 -1.806712000000000096e+00 -5.462000000000000188e-02 -1.645899999999999863e-01 5.764829999999999677e-01 -4.187999999999999882e-03 5.160789999999999544e-01 4.119519999999999849e-01 -3.457999999999999963e-02 2.136089999999999933e-01 -4.758740000000000192e-01 -4.342369999999999841e-01 5.436299999999999466e-01 -3.479280000000000150e-01 -4.923040000000000194e-01 4.019309999999999827e-01 -2.072289999999999965e-01 5.008390000000000342e-01 3.753290000000000237e-01 4.089630000000000210e-01 -4.306280000000000108e-01 -4.068780000000000174e-01 4.256090000000000151e-01 5.363400000000000112e-02 3.920649999999999968e-01 -3.987299999999999872e-02 4.333679999999999755e-01 -1.209879999999999983e-01 2.651919999999999833e-01 -5.050799999999999734e-02 -5.243269999999999875e-01 -3.635999999999999788e-01 5.048099999999999810e-02 -5.604390000000000205e-01 -2.594420000000000059e-01 4.722509999999999764e-01 -3.592839999999999923e-01 -1.908489999999999909e-01 -3.951099999999999751e-02 -2.286549999999999971e-01 -4.750550000000000050e-01 5.140280000000000404e-01 -5.339099999999999957e-01 -3.492319999999999869e-01 -4.656830000000000136e-01 -2.195660000000000112e-01 -3.454519999999999813e-01 -5.091689999999999827e-01 -4.227730000000000099e-01 -4.254550000000000276e-01 4.701750000000000096e-01 -3.664729999999999932e-01 1.924619999999999942e-01 -4.699820000000000109e-01 -4.062169999999999948e-01 -3.064000000000000057e-02 4.619710000000000205e-01 -1.945280000000000065e-01 6.019800000000000151e-02 -3.370499999999999885e-02 5.425670000000000215e-01 7.364700000000000413e-02 -5.161769999999999969e-01 2.126029999999999864e-01 -9.269600000000000062e-02 5.321000000000000209e-03 5.229979999999999629e-01 3.847740000000000049e-01 5.059320000000000483e-01 -1.636499999999999899e-01 1.253090000000000037e-01 -5.218000000000000416e-03 1.758699999999999847e-02 7.506999999999999784e-03 3.312500000000000167e-02 -8.066999999999999518e-03 4.107529999999999792e-01 -4.684079999999999910e-01 2.296970000000000123e-01 8.434099999999999930e-02 -3.144999999999999879e-02 2.808300000000000032e-02 2.047339999999999993e-01 4.721469999999999834e-01 -2.159900000000000014e-02 2.068639999999999923e-01 6.891999999999999689e-03 3.763699999999999823e-01 1.944500000000000048e-02 -4.314979999999999927e-01 3.297030000000000238e-01 -2.172199999999999964e-01 4.371169999999999778e-01
-7.483299999999999674e-02 8.152700000000000224e-02 -1.903259999999999952e-01 1.180859999999999965e-01 -7.622700000000000309e-02 1.441129999999999911e-01 -9.006000000000000116e-03 1.203919999999999990e-01 2.431810000000000083e-01 -1.076399999999999926e-02 -1.255489999999999939e-01 -1.864999999999999991e-01 -2.929400000000000059e-02 3.910399999999999987e-02 -1.230000000000000082e-04 7.938000000000000611e-03 -2.832499999999999948e-02 -1.688299999999999870e-02 -3.282092000000000009e+00 1.869917000000000051e+00 1.207122000000000028e+00 5.431899999999999923e-02 1.476799999999999988e-02 -9.484460000000000113e-01 5.933000000000000079e-02 -3.545910000000000117e+00 2.507300000000000154e-02 -3.039518999999999860e+00 1.828311000000000019e+00 7.264999999999999757e-03 6.808200000000000363e-02 5.343200000000000033e-02 -9.769210000000000393e-01 8.904999999999999721e-03 -3.771803999999999935e+00 1.239746999999999932e+00 2.785699999999999982e-02 -7.793600000000000527e-02 9.468569999999999487e-01 -3.015699999999999978e-02 2.093100000000000169e-02 -9.494839999999999947e-01 4.041800000000000254e-02 5.146499999999999686e-02 9.404700000000000282e-01 -4.532999999999999703e-03 -3.374300000000000216e-02 -9.286510000000000042e-01 -3.380699999999999678e-02 4.005000000000000226e-02 -9.655999999999999653e-03 5.626699999999999757e-02 3.291399999999999881e-02 1.411399999999999981e-02 3.050841000000000136e+00 1.738639000000000046e+00 -3.667800000000000227e-02 -5.795999999999999763e-02 -9.162499999999999811e-02 4.298400000000000137e-02 -8.941799999999999748e-02 -1.819499999999999937e-02 -7.309999999999999875e-04 3.049115000000000020e+00 1.757311000000000067e+00 1.641899999999999957e-02 -2.963500000000000162e-02 -3.848200000000000232e-02 -5.433000000000000329e-03 -6.865799999999999681e-02 3.012099999999999847e-02 1.338100000000000053e-02 3.318229000000000095e+00 -1.824664999999999981e+00 -1.251200000000000090e+00 -9.590300000000000213e-02 -2.737600000000000103e-02 9.817289999999999628e-01 -1.699700000000000169e-02 -2.263199999999999934e-02 9.912119999999999820e-01 -1.751399999999999832e-02 3.771799999999999820e+00 -1.238339999999999996e+00 1.864499999999999838e-02 3.561660999999999966e+00 -6.726000000000000208e-03 3.028688999999999965e+00 -1.857769000000000004e+00 -1.022900000000000025e-02 3.389000000000000346e-02 1.676599999999999965e-02 2.649200000000000166e-02 1.313100000000000031e-02 4.087500000000000161e-02 -3.168900000000000189e-02 3.059492000000000100e+00 -1.836599000000000093e+00 -1.419100000000000049e-02 -1.629099999999999993e-02 3.095900000000000041e-02 -1.427000000000000100e-03 -2.016000000000000084e-02 3.601421000000000205e+00 -3.417200000000000099e-02 -3.039096999999999937e+00 -1.843769999999999909e+00 2.454900000000000138e-02 -3.138602000000000114e+00 -1.702717999999999954e+00 1.030000000000000100e-03 1.258740000000000137e-01 3.794000000000000063e-03 2.412000000000000081e-03 -3.042421000000000042e+00 -1.853544000000000080e+00 -2.473200000000000051e-02 3.712900000000000228e-02 2.105299999999999880e-02 1.834699999999999873e-02 -5.780000000000000415e-03 1.144000000000000052e-03 1.863100000000000173e-02 4.492999999999999598e-03 6.360300000000000675e-02 -2.073799999999999949e-02 -1.620719999999999938e-01 1.436530000000000029e-01 4.614530000000000021e-01 1.688860000000000083e-01 -1.562000000000000055e-01 -4.060549999999999993e-01 -6.458200000000000052e-02 -3.465949999999999864e-01 8.432999999999999524e-03 -4.840200000000000058e-02 2.062049999999999994e-01 -5.340329999999999799e-01 -2.859720000000000040e-01 -4.809999999999999823e-04 1.007000000000000083e-03 -2.226099999999999954e-02 -1.100570000000000020e-01 4.578360000000000207e-01 1.217489999999999961e-01 2.640120000000000244e-01 -5.168299999999999977e-02 2.677729999999999833e-01 7.184000000000000281e-03 4.450400000000000189e-02 -1.579820000000000113e-01 1.979460000000000108e-01 1.325383999999999896e+00 -1.940979999999999928e-01 -4.454700000000000326e-02 1.252999999999999991e-03 -1.435000000000000078e-03 2.441499999999999920e-02 -1.334294000000000091e+00 4.386160000000000059e-01 -4.294020000000000059e-01 4.130030000000000090e-01 1.835699999999999832e-02 2.725400000000000045e-02 1.955000000000000140e-02 2.380919999999999981e-01 -6.723999999999999422e-02 -4.219760000000000177e-01 2.775429999999999842e-01 1.300360000000000127e-01 2.330199999999999980e-02 -3.426649999999999974e-01 2.182399999999999896e-01 -5.758300000000000224e-02 -1.257209999999999994e-01 -1.425819999999999865e-01 -2.658900000000000152e-02 -2.642220000000000124e-01 4.924999999999999691e-03 5.587799999999999712e-02 3.573649999999999882e-01 -1.201369999999999938e-01 -4.797130000000000005e-01 -2.259220000000000117e-01 -8.138299999999999701e-02 4.502439999999999776e-01 3.625309999999999921e-01 1.841889999999999916e-01 4.803910000000000124e-01 -1.832660000000000122e-01 -1.544580000000000120e-01 -4.537200000000000122e-01 7.504600000000000160e-02 6.895800000000000540e-02 4.792580000000000173e-01 -4.047810000000000019e-01 -2.018040000000000112e-01 4.288250000000000117e-01 2.615990000000000260e-01 4.345209999999999906e-01 -4.797980000000000023e-01 -2.369739999999999902e-01 -6.335000000000000353e-02 -4.279669999999999863e-01 -2.490130000000000121e-01 1.308690000000000131e-01 -1.200000000000000030e-05 2.081540000000000057e-01 4.461099999999999788e-02 8.210000000000000284e-03 1.427519999999999900e-01 -1.526470000000000049e-01 -2.280000000000000126e-04 2.618000000000000101e-03 -3.122399999999999828e-02 -6.734000000000000402e-03
-1.650890000000000135e-01 1.847129999999999883e-01 -1.592369999999999897e-01 1.045449999999999990e-01 -6.180399999999999783e-02 1.668469999999999953e-01 -1.263650000000000051e-01 -3.317099999999999910e-02 1.945099999999999954e-02 -9.645000000000000795e-03 -4.098000000000000080e-03 -2.439699999999999855e-02 3.257800000000000279e-02 1.998099999999999876e-02 -1.016099999999999989e-02 -4.403999999999999929e-03 9.017999999999999974e-03 1.366900000000000059e-02 -3.347008999999999901e+00 1.867866000000000026e+00 1.225494000000000083e+00 2.474900000000000017e-02 -2.637899999999999967e-02 -9.698989999999999556e-01 -6.439100000000000379e-02 -3.556084999999999940e+00 -1.158999999999999961e-02 -1.044579999999999953e-01 1.049540000000000056e-01 1.504699999999999961e-02 3.133550000000000058e+00 1.777827999999999964e+00 -7.564000000000000411e-03 -4.139600000000000224e-02 -1.163970000000000005e-01 1.822999999999999968e-02 7.355599999999999639e-02 -3.619426999999999950e+00 -1.295699999999999977e-02 3.464099999999999818e-02 4.878600000000000297e-02 2.539299999999999891e-02 1.207150000000000029e-01 8.861299999999999732e-02 -2.056600000000000095e-02 1.231200000000000003e-02 -2.005900000000000044e-02 2.087200000000000166e-02 -3.149839000000000055e+00 1.797701999999999911e+00 3.896000000000000157e-03 3.119622000000000117e+00 1.780599999999999961e+00 -3.397999999999999979e-03 3.057510999999999868e+00 1.841383999999999910e+00 -3.736999999999999870e-03 -8.701000000000000401e-02 -3.584312999999999860e+00 -1.369999999999999961e-04 -5.814400000000000124e-02 3.996600000000000152e-02 2.310900000000000107e-02 8.903800000000000603e-02 1.953699999999999881e-02 -2.084099999999999842e-02 4.193399999999999905e-02 -1.169580000000000064e-01 -1.053699999999999949e-02 -3.088299000000000127e+00 1.799609999999999932e+00 3.246000000000000187e-03 3.321838000000000068e+00 -1.846130999999999966e+00 -1.224896999999999903e+00 -3.093500000000000069e-02 -5.172999999999999647e-03 9.869350000000000067e-01 -8.374099999999999600e-02 4.469299999999999662e-02 6.358099999999999863e-02 -2.360500000000000098e-02 7.611099999999999810e-02 -6.138400000000000106e-02 7.622400000000000009e-02 3.537662000000000084e+00 5.858000000000000360e-03 7.131999999999999451e-02 -1.084289999999999976e-01 -9.724000000000000005e-03 -3.084175999999999807e+00 1.799158000000000035e+00 1.391099999999999975e-02 6.924299999999999899e-02 3.562733000000000150e+00 -2.217900000000000080e-02 3.057595000000000063e+00 -1.842959000000000014e+00 2.687900000000000011e-02 3.072081999999999979e+00 -1.798917000000000099e+00 -2.511999999999999997e-02 -5.462800000000000294e-02 -5.380499999999999866e-02 -1.020623000000000058e+00 -9.687300000000000078e-02 -3.076200000000000115e-02 1.005398000000000014e+00 1.100600000000000016e-02 8.912100000000000577e-02 2.393400000000000041e-02 1.037399999999999954e-02 2.606899999999999842e-02 -2.147400000000000003e-02 -3.042860999999999816e+00 -1.855299999999999949e+00 -2.544799999999999840e-02 -3.047914000000000012e+00 -1.789676000000000045e+00 2.610700000000000173e-02 -1.311799999999999945e-02 6.753000000000000322e-03 1.028666999999999998e+00 2.915399999999999936e-02 2.811500000000000110e-02 -1.015894999999999992e+00 -4.225160000000000027e-01 4.528349999999999875e-01 4.122020000000000128e-01 3.758270000000000222e-01 -4.321599999999999886e-01 -4.208479999999999999e-01 3.044100000000000139e-01 -5.966299999999999937e-01 -4.926650000000000196e-01 1.869280000000000108e-01 -1.719789999999999930e-01 -3.279499999999999776e-02 1.742839999999999945e-01 -6.142520000000000202e-01 4.932139999999999858e-01 1.584400000000000044e-02 -3.471799999999999886e-02 3.184300000000000325e-02 4.028450000000000086e-01 4.330149999999999832e-01 -4.539480000000000182e-01 -8.285700000000000010e-02 6.413060000000000427e-01 4.548860000000000126e-01 3.568470000000000253e-01 2.171609999999999929e-01 4.640750000000000153e-01 -1.910499999999999976e-01 5.967419999999999947e-01 -4.597709999999999853e-01 -1.476590000000000125e-01 -3.067829999999999724e-01 -4.303529999999999855e-01 -5.769159999999999844e-01 5.913880000000000248e-01 4.435080000000000133e-01 4.304299999999999793e-02 -1.843680000000000041e-01 4.390029999999999766e-01 -3.711189999999999767e-01 6.300219999999999709e-01 -4.546540000000000026e-01 5.524430000000000174e-01 -5.728469999999999951e-01 -6.376999999999999856e-03 9.388659999999999783e-01 -3.310339999999999949e-01 6.146999999999999686e-03 2.292230000000000101e-01 3.529140000000000055e-01 1.591100000000000153e-02 2.304350000000000009e-01 3.531670000000000087e-01 -1.805899999999999866e-02 2.126220000000000054e-01 1.639110000000000011e-01 8.946000000000000826e-03 5.410719999999999974e-01 -3.684970000000000190e-01 -1.018799999999999914e-02 2.290159999999999973e-01 -1.267040000000000111e-01 -3.165599999999999664e-02 3.817240000000000077e-01 -1.922889999999999877e-01 4.270999999999999623e-03 -1.873500000000000165e-02 -2.484480000000000022e-01 2.996899999999999911e-02 -1.576130000000000031e-01 -1.832529999999999992e-01 2.737999999999999982e-03 -7.476110000000000255e-01 -4.196280000000000010e-01 -3.955100000000000282e-02 -1.607560000000000100e-01 -1.725859999999999894e-01 -4.831000000000000225e-03 -9.594040000000000346e-01 -3.417129999999999890e-01 3.986200000000000160e-02 -6.102109999999999479e-01 3.756099999999999994e-01 4.846179999999999932e-01 1.824699999999999933e-02 2.545430000000000192e-01 -1.559999999999999928e-02 -5.869149999999999645e-01 1.541450000000000042e-01 -4.946590000000000154e-01