8.504602075999999400e+00 -1.633376246540922691e-24 1.323488980084844280e-23 4.252301164219854712e+00 7.365201377500000035e+00 0.000000000000000000e+00 4.252301198677535865e+00 2.455067189084101376e+00 6.943978460333332769e+00
8.629258092000000602e+00 0.000000000000000000e+00 0.000000000000000000e+00 4.474918331999999666e+00 7.515937412000000428e+00 0.000000000000000000e+00 4.412846109000000183e+00 2.597287648000000004e+00 6.945731460000000190e+00
8.385753635000000372e+00 0.000000000000000000e+00 0.000000000000000000e+00 4.159905067000000400e+00 7.436286761999999939e+00 0.000000000000000000e+00 4.283338152999999870e+00 2.313839141999999960e+00 6.990775338999999811e+00
8.366473471000000828e+00 0.000000000000000000e+00 0.000000000000000000e+00 3.982638935999999852e+00 7.347089454999999880e+00 0.000000000000000000e+00 4.173563313999999913e+00 2.307232364999999952e+00 6.879864139999999573e+00
8.520647091000000728e+00 0.000000000000000000e+00 0.000000000000000000e+00 4.439309140999999848e+00 7.443859244999999625e+00 0.000000000000000000e+00 4.329576681999999899e+00 2.564650585999999954e+00 6.893728397000000285e+00
8.631223357999999735e+00 0.000000000000000000e+00 0.000000000000000000e+00 4.389161557000000435e+00 7.412353702999999960e+00 0.000000000000000000e+00 4.484414164000000369e+00 2.496443236000000176e+00 7.091037406999999959e+00
8.412642874999999520e+00 0.000000000000000000e+00 0.000000000000000000e+00 4.393832655999999837e+00 7.283234294999999747e+00 0.000000000000000000e+00 4.468655895000000378e+00 2.613688538999999977e+00 7.055260486999999969e+00
8.507162820999999653e+00 0.000000000000000000e+00 0.000000000000000000e+00 4.209224890999999857e+00 7.482450552999999616e+00 0.000000000000000000e+00 4.201697772000000164e+00 2.653342021999999911e+00 6.791461907999999603e+00
8.698329212999999172e+00 0.000000000000000000e+00 0.000000000000000000e+00 4.285390003999999919e+00 7.347880149999999944e+00 0.000000000000000000e+00 4.372613473000000361e+00 2.404717552000000147e+00 6.740360478999999572e+00
8.724993539999999825e+00 0.000000000000000000e+00 0.000000000000000000e+00 4.401221957999999823e+00 7.451125986000000090e+00 0.000000000000000000e+00 4.484777687000000235e+00 2.574847287999999956e+00 6.739888469000000271e+00
8.545257922999999423e+00 0.000000000000000000e+00 0.000000000000000000e+00 4.247786578000000368e+00 7.359323322999999917e+00 0.000000000000000000e+00 4.273535136999999651e+00 2.454268122999999857e+00 6.958932274000000362e+00
8.590507147000000288e+00 -1.101957574493087410e-23 -1.323488980084844280e-23 4.295253701085880671e+00 7.439597350999999748e+00 0.000000000000000000e+00 4.295253736782706611e+00 2.479865846112697003e+00 7.014119656999999286e+00
8.716567625999999791e+00 0.000000000000000000e+00 0.000000000000000000e+00 4.308899117000000167e+00 7.253866654000000302e+00 0.000000000000000000e+00 4.548898555000000066e+00 2.630015595999999789e+00 7.188294603000000116e+00
8.612981136000000149e+00 0.000000000000000000e+00 0.000000000000000000e+00 4.145519208999999705e+00 7.222070192000000333e+00 0.000000000000000000e+00 4.456391163000000155e+00 2.593122391000000082e+00 6.943419104000000175e+00
8.833148059000000885e+00 0.000000000000000000e+00 0.000000000000000000e+00 4.431541591000000224e+00 7.288282811000000194e+00 0.000000000000000000e+00 4.235278744000000373e+00 2.641459504000000180e+00 7.100921761999999582e+00
8.732685081999999710e+00 0.000000000000000000e+00 0.000000000000000000e+00 4.259390366999999955e+00 7.480579557999999629e+00 0.000000000000000000e+00 4.265172945999999854e+00 2.380002504000000130e+00 7.098690205999999669e+00
8.679268990000000628e+00 0.000000000000000000e+00 0.000000000000000000e+00 4.505872551999999587e+00 7.554229246000000231e+00 0.000000000000000000e+00 4.465278123000000043e+00 2.689849712000000004e+00 6.951104361999999703e+00
8.480387689000000506e+00 0.000000000000000000e+00 0.000000000000000000e+00 4.304596891000000092e+00 7.516118958999999933e+00 0.000000000000000000e+00 4.454783459999999806e+00 2.681586235999999790e+00 7.139007795999999573e+00
8.751689343000000676e+00 0.000000000000000000e+00 0.000000000000000000e+00 4.512200482999999984e+00 7.349533013000000281e+00 0.000000000000000000e+00 4.274257107999999583e+00 2.377001738999999780e+00 7.122773895999999993e+00
8.835662142000000330e+00 0.000000000000000000e+00 0.000000000000000000e+00 4.595798547000000234e+00 7.427607379000000343e+00 0.000000000000000000e+00 4.409892242999999823e+00 2.491270484000000174e+00 7.220769397999999839e+00
8.691281576999999814e+00 0.000000000000000000e+00 0.000000000000000000e+00 4.139584196000000382e+00 7.336111325000000072e+00 0.000000000000000000e+00 4.388171759999999644e+00 2.325635676000000096e+00 6.804518982000000271e+00
8.433235589000000587e+00 0.000000000000000000e+00 0.000000000000000000e+00 4.017873380000000161e+00 7.498594416000000429e+00 0.000000000000000000e+00 4.093604205000000107e+00 2.637162904000000196e+00 7.158955298999999606e+00
8.676412218999999482e+00 -2.210718743688034152e-24 0.000000000000000000e+00 4.338206238085880351e+00 7.513993323999999419e+00 0.000000000000000000e+00 4.338206272782707096e+00 2.504664506055505946e+00 7.084260853666665803e+00
8.760379214000000303e+00 0.000000000000000000e+00 0.000000000000000000e+00 4.315277148999999923e+00 7.417638993999999819e+00 0.000000000000000000e+00 4.396300043000000102e+00 2.543529351000000105e+00 7.088389674000000085e+00
8.532580180000000070e+00 0.000000000000000000e+00 0.000000000000000000e+00 4.057783289999999710e+00 7.619556829000000420e+00 0.000000000000000000e+00 4.276285547999999714e+00 2.713568385999999943e+00 6.938109607000000345e+00
8.821680239000000867e+00 0.000000000000000000e+00 0.000000000000000000e+00 4.378781691000000365e+00 7.309687033000000334e+00 0.000000000000000000e+00 4.414039013000000011e+00 2.243205205000000202e+00 6.916483625999999774e+00
8.778432575000000071e+00 0.000000000000000000e+00 0.000000000000000000e+00 4.541343569000000358e+00 7.414895294999999997e+00 0.000000000000000000e+00 4.423618756999999846e+00 2.677201521999999834e+00 7.019233318000000388e+00
8.746457214999999508e+00 0.000000000000000000e+00 0.000000000000000000e+00 4.454088866000000202e+00 7.702004595000000009e+00 0.000000000000000000e+00 4.564599825000000166e+00 2.610655286000000075e+00 6.953445269999999567e+00
8.769234198999999563e+00 0.000000000000000000e+00 0.000000000000000000e+00 4.508374046000000135e+00 7.318650520000000270e+00 0.000000000000000000e+00 4.500402292000000415e+00 2.592218126000000122e+00 7.174449309999999969e+00
8.739283392999999123e+00 0.000000000000000000e+00 0.000000000000000000e+00 4.536856046999999670e+00 7.297127849999999860e+00 0.000000000000000000e+00 4.484222523999999765e+00 2.352847183999999814e+00 7.081197960999999985e+00
8.921074991999999426e+00 0.000000000000000000e+00 0.000000000000000000e+00 4.280722562000000231e+00 7.424422944999999885e+00 0.000000000000000000e+00 4.601832396999999908e+00 2.396160622000000018e+00 6.914156885999999780e+00
8.534596515000000494e+00 0.000000000000000000e+00 0.000000000000000000e+00 4.121714758999999617e+00 7.536503820000000076e+00 0.000000000000000000e+00 4.213566106000000033e+00 2.440192788000000057e+00 7.005412076999999904e+00
8.882750713000000076e+00 0.000000000000000000e+00 0.000000000000000000e+00 4.641913281999999974e+00 7.652586173000000436e+00 0.000000000000000000e+00 4.583224547999999565e+00 2.749974604000000156e+00 7.194537904999999789e+00
9.195014596000014251e+00 1.923429728381950834e-23 2.455655579054751618e-23 4.597508077711420782e+00 7.963115733999972967e+00 1.445352626645857320e-23 4.597508062201245416e+00 2.654372226920467259e+00 7.507697472666649219e+00
9.261749562000000324e+00 0.000000000000000000e+00 0.000000000000000000e+00 4.801181613999999875e+00 7.798232020000000375e+00 0.000000000000000000e+00 4.844500156999999696e+00 2.515728379000000015e+00 7.506844710000000198e+00
8.981575878999999318e+00 0.000000000000000000e+00 0.000000000000000000e+00 4.625275553999999900e+00 7.931668934000000171e+00 0.000000000000000000e+00 4.650663122000000094e+00 2.484814096000000028e+00 7.399970904999999988e+00
8.960514894999999314e+00 0.000000000000000000e+00 0.000000000000000000e+00 4.665786136000000361e+00 7.903996931000000004e+00 0.000000000000000000e+00 4.604230974000000032e+00 2.546913047999999957e+00 7.727432771000000145e+00
9.446482780000000190e+00 0.000000000000000000e+00 0.000000000000000000e+00 4.848915268999999917e+00 7.932523878999999667e+00 0.000000000000000000e+00 4.791203144999999886e+00 2.688503988999999983e+00 7.553026884000000329e+00
9.362605135000000800e+00 0.000000000000000000e+00 0.000000000000000000e+00 4.873448651000000353e+00 8.005952674999999630e+00 0.000000000000000000e+00 4.722146865000000027e+00 2.795821650000000158e+00 7.421946637999999652e+00
9.116254055000000633e+00 0.000000000000000000e+00 0.000000000000000000e+00 4.333170151000000025e+00 8.105262394000000370e+00 0.000000000000000000e+00 4.289836818999999579e+00 2.659226716000000046e+00 7.362431894000000199e+00
8.923801411999999544e+00 0.000000000000000000e+00 0.000000000000000000e+00 4.280690994999999610e+00 7.785292227000000231e+00 0.000000000000000000e+00 4.353253824000000272e+00 2.815547082000000145e+00 7.704931286999999962e+00
9.469058278000000328e+00 0.000000000000000000e+00 0.000000000000000000e+00 4.509614844999999761e+00 7.771069103000000311e+00 0.000000000000000000e+00 4.635425586000000209e+00 2.463983053999999839e+00 7.407446043000000202e+00
9.243957342999999938e+00 0.000000000000000000e+00 0.000000000000000000e+00 4.718592844999999869e+00 8.013483958000000129e+00 0.000000000000000000e+00 4.729263322999999630e+00 2.782202993999999929e+00 7.596227584000000199e+00
9.367305389000000204e+00 0.000000000000000000e+00 0.000000000000000000e+00 4.572130697000000410e+00 7.913787572000000381e+00 0.000000000000000000e+00 4.822894748999999592e+00 2.617571540999999780e+00 7.429378644999999892e+00
9.287893532000017771e+00 -4.074607270679340583e-23 -3.071447176455909433e-23 4.643947552175522908e+00 8.043551245999971400e+00 1.212205791474573387e-23 4.643947536805438148e+00 2.681184068334680148e+00 7.583532800666649365e+00
9.384173446000000141e+00 0.000000000000000000e+00 0.000000000000000000e+00 4.735691672999999824e+00 8.246589313999999504e+00 0.000000000000000000e+00 4.843522724999999696e+00 2.897032460999999781e+00 7.608905018999999825e+00
9.536572810999999206e+00 0.000000000000000000e+00 0.000000000000000000e+00 4.974832080999999739e+00 8.003920955999999975e+00 0.000000000000000000e+00 4.887211264000000277e+00 2.466843121000000139e+00 7.447428988999999611e+00
9.500442812999999376e+00 0.000000000000000000e+00 0.000000000000000000e+00 4.983863613999999664e+00 8.054352743000000814e+00 0.000000000000000000e+00 4.807915460000000252e+00 2.894940420999999819e+00 7.550078894000000318e+00
9.067652657000000005e+00 0.000000000000000000e+00 0.000000000000000000e+00 4.580470043000000047e+00 7.964213945000000017e+00 0.000000000000000000e+00 4.527211429000000287e+00 2.846297643999999849e+00 7.781667725000000146e+00
9.116382934000000660e+00 0.000000000000000000e+00 0.000000000000000000e+00 4.570912333999999966e+00 8.248235856999999172e+00 0.000000000000000000e+00 4.630333348999999821e+00 2.729832986999999989e+00 7.382859433000000138e+00
9.096697042000000621e+00 0.000000000000000000e+00 0.000000000000000000e+00 4.344350227999999703e+00 7.972264121000000259e+00 0.000000000000000000e+00 4.269938683000000346e+00 2.563121991000000044e+00 7.354350498999999708e+00
9.068933370999999966e+00 0.000000000000000000e+00 0.000000000000000000e+00 4.499192646000000018e+00 7.815459104000000323e+00 0.000000000000000000e+00 4.483153996000000419e+00 2.405094897000000120e+00 7.779473567000000145e+00
9.505688495999999432e+00 0.000000000000000000e+00 0.000000000000000000e+00 4.626343336999999778e+00 8.146737720000000849e+00 0.000000000000000000e+00 4.606727571999999604e+00 2.706816503999999846e+00 7.380414342999999988e+00
9.539732566999999719e+00 0.000000000000000000e+00 0.000000000000000000e+00 4.766297046000000037e+00 8.036606706000000599e+00 0.000000000000000000e+00 4.650412189999999946e+00 2.746155877000000078e+00 7.436768963999999649e+00
9.219865559000000488e+00 0.000000000000000000e+00 0.000000000000000000e+00 4.428221624999999939e+00 7.938018548999999702e+00 0.000000000000000000e+00 4.681436720999999856e+00 2.590161302999999915e+00 7.446987626000000304e+00
9.380772467000014103e+00 2.047015199057899662e-23 1.989361908712183753e-23 4.690387028505647926e+00 8.123986758499970762e+00 -4.392612575759846233e-23 4.690387012698300495e+00 2.707995909191702300e+00 7.659368129333315345e+00
9.322260035999999417e+00 0.000000000000000000e+00 0.000000000000000000e+00 4.681293337999999693e+00 8.115764777000000763e+00 0.000000000000000000e+00 4.739888795999999793e+00 2.603572345999999982e+00 7.432977691999999692e+00
9.424259746000000604e+00 0.000000000000000000e+00 0.000000000000000000e+00 4.689898517999999683e+00 8.037677546999999478e+00 0.000000000000000000e+00 4.522806036999999613e+00 2.808401406000000211e+00 7.603164926999999906e+00
9.175354045000000625e+00 0.000000000000000000e+00 0.000000000000000000e+00 4.637600860000000047e+00 8.188543592000000260e+00 0.000000000000000000e+00 4.618633200999999744e+00 2.727989834999999808e+00 7.704229551000000065e+00
9.381842496000000864e+00 0.000000000000000000e+00 0.000000000000000000e+00 4.531632314000000328e+00 8.261194814999999636e+00 0.000000000000000000e+00 4.853124120000000374e+00 2.792066444000000036e+00 7.549908653000000136e+00
9.540513484999999960e+00 0.000000000000000000e+00 0.000000000000000000e+00 4.745358803000000236e+00 8.339043922000000109e+00 0.000000000000000000e+00 4.862180571999999756e+00 2.997499233000000096e+00 7.757749682000000035e+00
9.433883270000000820e+00 0.000000000000000000e+00 0.000000000000000000e+00 4.694993461000000146e+00 7.974799460999999923e+00 0.000000000000000000e+00 4.899981982999999985e+00 2.738914807000000007e+00 7.550754809999999928e+00
9.616431924000000464e+00 0.000000000000000000e+00 0.000000000000000000e+00 5.048121983999999784e+00 8.191302030999999317e+00 0.000000000000000000e+00 4.797952344999999674e+00 2.546032762999999921e+00 7.796705564999999893e+00
9.403272567000000137e+00 0.000000000000000000e+00 0.000000000000000000e+00 4.911687657999999956e+00 8.166521563999999955e+00 0.000000000000000000e+00 4.720912135999999926e+00 2.676039032999999900e+00 7.703154646999999855e+00
9.438530134000000515e+00 0.000000000000000000e+00 0.000000000000000000e+00 4.531096706999999668e+00 8.308925662000000045e+00 0.000000000000000000e+00 4.786814663000000358e+00 2.660056629000000061e+00 7.661424690999999676e+00
9.627967893999999305e+00 0.000000000000000000e+00 0.000000000000000000e+00 4.629341651999999918e+00 8.156810334999999412e+00 0.000000000000000000e+00 4.839451659999999933e+00 2.646146322999999967e+00 7.735886952000000427e+00
