2.834870023982888121e+00 1.636709980930662001e+00 1.157329968222206240e+00 4.252300050875440718e+00 2.455069979292062943e+00 3.471989952333329299e+00 5.669730077767908050e+00 3.273419977653464485e+00 5.786649936444498543e+00 4.252300045056196964e+00 4.091779968764027053e+00 1.157329944888891626e+00 5.669730071948664296e+00 4.910129967125428152e+00 3.471989929000060204e+00 7.087170098841217403e+00 5.728489965486743607e+00 5.786649913111097554e+00 5.669730066129506696e+00 6.546849956597392328e+00 1.157329921555577013e+00 7.087170093021973649e+00 7.365199954958707274e+00 3.471989905666660103e+00 8.504600119914526246e+00 8.183559953320107994e+00 5.786649889777782718e+00 5.669730023982888056e+00 1.636709956597391713e+00 1.157329943888936175e+00 7.087170050875441163e+00 2.455069954958707168e+00 3.471989927999973524e+00 8.504600077767907607e+00 3.273419953320108267e+00 5.786649912111141880e+00 7.087170045056197409e+00 4.091779944430671279e+00 1.157329920555535629e+00 8.504600071948665629e+00 4.910129942792071489e+00 3.471989904666704430e+00 9.922040098841218736e+00 5.728489941153386944e+00 5.786649888777741779e+00 8.504600066129507141e+00 6.546849932264035665e+00 1.157329897222221016e+00 9.922040093021974982e+00 7.365199930625350611e+00 3.471989881333303885e+00 1.133947011991452669e+01 8.183559928986753107e+00 5.786649865444426943e+00 8.504600023982888501e+00 1.636709932264035716e+00 1.157329919555580178e+00 9.922040050875441608e+00 2.455069930625350949e+00 3.471989903666617749e+00 1.133947007776790805e+01 3.273419928986752048e+00 5.786649887777786105e+00 9.922040045056199631e+00 4.091779920097314616e+00 1.157329896222179855e+00 1.133947007194866607e+01 4.910129918458715714e+00 3.471989880333348655e+00 1.275690009884121778e+01 5.728489916820117323e+00 5.786649864444472158e+00 1.133947006612950759e+01 6.546849907930679890e+00 1.157329872888865241e+00 1.275690009302197403e+01 7.365199906292080989e+00 3.471989857000033819e+00 1.417434011991452714e+01 8.183559904653396444e+00 5.786649841111071169e+00 8.504600143897414810e+00 9.820269958584127323e+00 6.943979882333345621e+00 5.669730090112395260e+00 8.183559961861410770e+00 2.314659914111139027e+00 7.087170117004862213e+00 9.001909960222725715e+00 4.629319898222221674e+00 5.669730101750795725e+00 4.910129982917482039e+00 6.943979929000060558e+00 2.834870047965776241e+00 3.273419986194680220e+00 2.314659960777768255e+00 4.252300074858328394e+00 4.091779984556080940e+00 4.629319944888891314e+00 7.087170122824105079e+00 7.365199970750761160e+00 6.943979905666659569e+00 4.252300069039085528e+00 5.728489974028044607e+00 2.314659937444453863e+00 5.669730095931638125e+00 6.546849972389446215e+00 4.629319921555577366e+00 1.133947014389741526e+01 9.820269934250772437e+00 6.943979857999988958e+00 8.504600090112393929e+00 8.183559937528054107e+00 2.314659889777783253e+00 9.922040117004861770e+00 9.001909935889369052e+00 4.629319873888865899e+00 8.504600101750796171e+00 4.910129958584125376e+00 6.943979904666703895e+00 5.669730047965776620e+00 3.273419961861410155e+00 2.314659936444498189e+00 7.087170074858328839e+00 4.091779960222725165e+00 4.629319920555535539e+00 9.922040122824105524e+00 7.365199946417404497e+00 6.943979881333303794e+00 7.087170069039085973e+00 5.728489949694688832e+00 2.314659913111097644e+00 8.504600095931637682e+00 6.546849948056089552e+00 4.629319897222220703e+00 1.417434014389741570e+01 9.820269909917415774e+00 6.943979833666633183e+00 1.133947009011239437e+01 8.183559913194699220e+00 2.314659865444427478e+00 1.275690011700486082e+01 9.001909911556099431e+00 4.629319849555596278e+00 1.133947010175079662e+01 4.910129934250769601e+00 6.943979880333348120e+00 8.504600047965775289e+00 3.273419937528053936e+00 2.314659912111142415e+00 9.922040074858330172e+00 4.091779935889368502e+00 4.629319896222179764e+00 1.275690012282410457e+01 7.365199922084134876e+00 6.943979857000034173e+00 9.922040069039086418e+00 5.728489925361332169e+00 2.314659888777741870e+00 1.133947009593163813e+01 6.546849923722733777e+00 4.629319872888864928e+00
2.918620000000000214e+00 1.684600000000000097e+00 1.156679999999999930e+00 4.395760000000000112e+00 2.555719999999999992e+00 3.481339999999999879e+00 5.866500000000000270e+00 3.424949999999999939e+00 5.795340000000000380e+00 4.419500000000000206e+00 4.195940000000000225e+00 1.160639999999999894e+00 5.872690000000000410e+00 5.056879999999999598e+00 3.483039999999999914e+00 7.348740000000000272e+00 5.933600000000000207e+00 5.781299999999999883e+00 5.902560000000000251e+00 6.711660000000000181e+00 1.154490000000000016e+00 7.377629999999999910e+00 7.564890000000000114e+00 3.476420000000000066e+00 8.847250000000000725e+00 8.438420000000000698e+00 5.789920000000000400e+00 5.799949999999999939e+00 1.689410000000000078e+00 1.162369999999999903e+00 7.261289999999999800e+00 2.549409999999999954e+00 3.467859999999999943e+00 8.739079999999999515e+00 3.422569999999999890e+00 5.793739999999999668e+00 7.288170000000000037e+00 4.192409999999999748e+00 1.147790000000000088e+00 8.750170000000000670e+00 5.053930000000000256e+00 3.479000000000000092e+00 1.023009000000000057e+01 5.922900000000000276e+00 5.788210000000000299e+00 8.783799999999999386e+00 6.695899999999999963e+00 1.152190000000000047e+00 1.025248000000000026e+01 7.566010000000000346e+00 3.473510000000000097e+00 1.171632999999999925e+01 8.436780000000000612e+00 5.777260000000000062e+00 8.659299999999999997e+00 1.697459999999999969e+00 1.148320000000000007e+00 1.014212000000000025e+01 2.555130000000000123e+00 3.473829999999999973e+00 1.162330000000000041e+01 3.414709999999999912e+00 5.786389999999999922e+00 1.016493999999999964e+01 4.184110000000000440e+00 1.161089999999999955e+00 1.163288000000000011e+01 5.052419999999999689e+00 3.474489999999999856e+00 1.309971999999999959e+01 5.922279999999999767e+00 5.788450000000000095e+00 1.165473000000000070e+01 6.710799999999999876e+00 1.149769999999999959e+00 1.312179000000000073e+01 7.547600000000000087e+00 3.466689999999999827e+00 1.459783999999999970e+01 8.431720000000000326e+00 5.784740000000000215e+00 8.630060000000000286e+00 2.469999999999999973e-03 1.319999999999999993e-03 5.946550000000000225e+00 8.381209999999999383e+00 2.315199999999999925e+00 7.414830000000000254e+00 9.228680000000000661e+00 4.631249999999999645e+00 1.011051999999999929e+01 2.520669999999999966e+00 2.000000000000000164e-05 2.978520000000000056e+00 3.375210000000000043e+00 2.321159999999999890e+00 4.447269999999999612e+00 4.234890000000000043e+00 4.642669999999999852e+00 1.160618999999999978e+01 5.009859999999999758e+00 1.765999999999999862e-02 1.308187999999999995e+01 5.872810000000000308e+00 2.320110000000000117e+00 5.929020000000000401e+00 6.732420000000000293e+00 4.632900000000000240e+00 2.885990000000000055e+00 8.420000000000000401e-03 9.799999999999999684e-04 4.350609999999999644e+00 8.695000000000000506e-01 2.317769999999999886e+00 1.029599999999999937e+01 9.244669999999999277e+00 4.623619999999999841e+00 4.371929999999999872e+00 2.505529999999999813e+00 3.239999999999999825e-03 5.841429999999999900e+00 3.354309999999999903e+00 2.304800000000000182e+00 7.300500000000000433e+00 4.250110000000000277e+00 4.633619999999999628e+00 5.861710000000000420e+00 5.010609999999999786e+00 5.000000000000000240e-05 7.331529999999999880e+00 5.879710000000000214e+00 2.312920000000000087e+00 8.799400000000000333e+00 6.750309999999999810e+00 4.645590000000000330e+00 1.022777999999999921e+01 7.515950000000000131e+00 6.000000000000000152e-05 7.215160000000000018e+00 8.682600000000000318e-01 2.308079999999999909e+00 1.316897999999999946e+01 9.242470000000000852e+00 4.632850000000000357e+00 7.230159999999999698e+00 2.513459999999999805e+00 4.499999999999999660e-03 8.721120000000000871e+00 3.366280000000000161e+00 2.319490000000000052e+00 1.019107999999999947e+01 4.238129999999999953e+00 4.631059999999999732e+00 1.314850999999999992e+01 7.617910000000000181e+00 6.939669999999999561e+00 1.020438000000000045e+01 5.876369999999999649e+00 2.316219999999999946e+00 1.167530999999999963e+01 6.743689999999999962e+00 4.631230000000000402e+00
2.809190000000000076e+00 1.612810000000000077e+00 1.156800000000000050e+00 4.231779999999999653e+00 2.397740000000000204e+00 3.497329999999999828e+00 5.660800000000000054e+00 3.168299999999999894e+00 5.824220000000000397e+00 4.201290000000000191e+00 4.104840000000000266e+00 1.155860000000000110e+00 5.618839999999999613e+00 4.874489999999999768e+00 3.494629999999999903e+00 7.048210000000000086e+00 5.645959999999999646e+00 5.826579999999999870e+00 5.576679999999999637e+00 6.582709999999999617e+00 1.163640000000000008e+00 7.003790000000000404e+00 7.356779999999999653e+00 3.492170000000000218e+00 8.430440000000000822e+00 8.121100000000000207e+00 5.828979999999999606e+00 5.602400000000000269e+00 1.628859999999999975e+00 1.165380000000000082e+00 7.029620000000000424e+00 2.391830000000000123e+00 3.500090000000000146e+00 8.461240000000000094e+00 3.171009999999999884e+00 5.825190000000000090e+00 6.984750000000000014e+00 4.088619999999999699e+00 1.161419999999999897e+00 8.409959999999999880e+00 4.881380000000000052e+00 3.488440000000000207e+00 9.847400000000000375e+00 5.646040000000000170e+00 5.823739999999999917e+00 8.385640000000000427e+00 6.575529999999999653e+00 1.154130000000000100e+00 9.799540000000000362e+00 7.355120000000000324e+00 3.495280000000000165e+00 1.123760000000000048e+01 8.127420000000000755e+00 5.815549999999999997e+00 8.388849999999999696e+00 1.633219999999999894e+00 1.163389999999999924e+00 9.816129999999999356e+00 2.400529999999999831e+00 3.508690000000000087e+00 1.125076999999999927e+01 3.167170000000000041e+00 5.825359999999999872e+00 9.784359999999999502e+00 4.102179999999999715e+00 1.163240000000000052e+00 1.121083999999999925e+01 4.881330000000000169e+00 3.507410000000000139e+00 1.264987999999999957e+01 5.635539999999999772e+00 5.814350000000000129e+00 1.117966999999999977e+01 6.575059999999999683e+00 1.151040000000000063e+00 1.259747999999999912e+01 7.354230000000000267e+00 3.494650000000000034e+00 1.402707999999999977e+01 8.128539999999999210e+00 5.829710000000000392e+00 8.451510000000000744e+00 9.743159999999999599e+00 6.988870000000000360e+00 1.397429999999999950e+01 8.201060000000000016e+00 2.343170000000000197e+00 7.016390000000000349e+00 8.978709999999999525e+00 4.661439999999999806e+00 5.667029999999999568e+00 4.778660000000000352e+00 6.989889999999999937e+00 1.120780000000000065e+01 3.259879999999999889e+00 2.342970000000000219e+00 1.261434999999999995e+01 4.012170000000000236e+00 4.671350000000000335e+00 1.114361000000000068e+01 4.967100000000000293e+00 8.200000000000000691e-03 4.204049999999999621e+00 5.726860000000000284e+00 2.323150000000000048e+00 5.631219999999999892e+00 6.499419999999999753e+00 4.662720000000000198e+00 1.122334999999999994e+01 9.743240000000000123e+00 6.985439999999999650e+00 4.216079999999999828e+00 7.868800000000000239e-01 2.333509999999999973e+00 5.650570000000000093e+00 1.546289999999999942e+00 4.667950000000000266e+00 8.472160000000000579e+00 4.794559999999999711e+00 6.976259999999999906e+00 5.615870000000000140e+00 3.246080000000000076e+00 2.327059999999999906e+00 7.040540000000000020e+00 4.012360000000000149e+00 4.663450000000000095e+00 9.851069999999999993e+00 7.272829999999999906e+00 6.990109999999999602e+00 6.997650000000000148e+00 5.730529999999999902e+00 2.328460000000000196e+00 8.426450000000000884e+00 6.501870000000000260e+00 4.662539999999999907e+00 9.872740000000000293e+00 2.316219999999999946e+00 6.989099999999999646e+00 1.116736000000000040e+01 8.202349999999999142e+00 2.343739999999999934e+00 8.446469999999999700e+00 1.542939999999999978e+00 4.660050000000000026e+00 1.126402000000000037e+01 4.790009999999999657e+00 6.980690000000000062e+00 8.411970000000000169e+00 3.254500000000000171e+00 2.316460000000000186e+00 9.832539999999999836e+00 4.021869999999999834e+00 4.661880000000000024e+00 1.265042000000000044e+01 7.274770000000000181e+00 6.989160000000000039e+00 9.787940000000000751e+00 5.735549999999999926e+00 2.333400000000000141e+00 1.120556999999999981e+01 6.512209999999999610e+00 4.668400000000000105e+00
2.766230000000000189e+00 1.595769999999999911e+00 1.142379999999999951e+00 4.147669999999999746e+00 2.368799999999999795e+00 3.444749999999999979e+00 5.543000000000000149e+00 3.150609999999999911e+00 5.735979999999999634e+00 4.071060000000000123e+00 4.061040000000000205e+00 1.148539999999999894e+00 5.475970000000000226e+00 4.827849999999999753e+00 3.440150000000000041e+00 6.860649999999999693e+00 5.584690000000000154e+00 5.743970000000000020e+00 5.409419999999999895e+00 6.518779999999999575e+00 1.135119999999999907e+00 6.807150000000000034e+00 7.274930000000000341e+00 3.431659999999999933e+00 8.189230000000000231e+00 8.045769999999999200e+00 5.735030000000000072e+00 5.536129999999999995e+00 1.611140000000000017e+00 1.145869999999999944e+00 6.933950000000000280e+00 2.378390000000000004e+00 3.439740000000000020e+00 8.313340000000000174e+00 3.134790000000000187e+00 5.723989999999999689e+00 6.870829999999999771e+00 4.057879999999999932e+00 1.147010000000000085e+00 8.253439999999999444e+00 4.825929999999999609e+00 3.427350000000000119e+00 9.642179999999999751e+00 5.605369999999999742e+00 5.746649999999999814e+00 8.199830000000000396e+00 6.494900000000000340e+00 1.157380000000000075e+00 9.576679999999999637e+00 7.263449999999999740e+00 3.434890000000000221e+00 1.098237999999999914e+01 8.051209999999999312e+00 5.734969999999999679e+00 8.323029999999999262e+00 1.600789999999999935e+00 1.140759999999999996e+00 9.727080000000000837e+00 2.368559999999999999e+00 3.447340000000000071e+00 1.111894000000000027e+01 3.136480000000000157e+00 5.745639999999999858e+00 9.660589999999999122e+00 4.056759999999999700e+00 1.145960000000000090e+00 1.103921000000000063e+01 4.835230000000000139e+00 3.435439999999999827e+00 1.244809000000000054e+01 5.597380000000000244e+00 5.731639999999999624e+00 1.098652000000000051e+01 6.507060000000000066e+00 1.146689999999999987e+00 1.237637999999999927e+01 7.273249999999999993e+00 3.443220000000000169e+00 1.377734000000000059e+01 8.050119999999999720e+00 5.733259999999999579e+00 8.159150000000000347e+00 9.653950000000000031e+00 6.879629999999999690e+00 1.372875999999999941e+01 8.109809999999999519e+00 2.280159999999999965e+00 6.766009999999999636e+00 8.884130000000000749e+00 4.585490000000000066e+00 5.512470000000000425e+00 4.760909999999999975e+00 6.873940000000000161e+00 2.725940000000000030e+00 3.212349999999999817e+00 2.302480000000000082e+00 1.246695000000000064e+01 3.978979999999999961e+00 4.583269999999999733e+00 6.834279999999999688e+00 7.194519999999999804e+00 6.868669999999999831e+00 1.240358999999999945e+01 5.665510000000000268e+00 2.282970000000000166e+00 1.378728000000000087e+01 6.437619999999999898e+00 4.595640000000000391e+00 6.772310000000000052e+00 7.346339999999999648e+00 5.599999999999999509e-04 4.177870000000000417e+00 7.812500000000000000e-01 2.308030000000000026e+00 5.577709999999999724e+00 1.544939999999999980e+00 4.596479999999999677e+00 8.289809999999999235e+00 4.757200000000000095e+00 6.879190000000000360e+00 5.498789999999999623e+00 3.212019999999999875e+00 2.302070000000000061e+00 6.888560000000000016e+00 3.996129999999999960e+00 4.575529999999999653e+00 9.619170000000000442e+00 7.206640000000000157e+00 6.878470000000000084e+00 6.834859999999999935e+00 5.674299999999999677e+00 2.287630000000000052e+00 8.230100000000000193e+00 6.437520000000000131e+00 4.588079999999999714e+00 1.373329999999999984e+01 9.653370000000000672e+00 6.878659999999999997e+00 6.978130000000000166e+00 7.709099999999999842e-01 2.290080000000000116e+00 8.367449999999999832e+00 1.542419999999999902e+00 4.585110000000000241e+00 1.107384000000000057e+01 4.759299999999999642e+00 6.873780000000000001e+00 8.296490000000000364e+00 3.217970000000000219e+00 2.293499999999999872e+00 9.678100000000000591e+00 3.993050000000000210e+00 4.574720000000000120e+00 1.240462999999999916e+01 7.205400000000000027e+00 6.878860000000000419e+00 9.623630000000000351e+00 5.667080000000000339e+00 2.293800000000000061e+00 1.102058000000000071e+01 6.429369999999999585e+00 4.590670000000000250e+00
2.876570000000000071e+00 1.675179999999999891e+00 1.140830000000000011e+00 4.331570000000000142e+00 2.520449999999999857e+00 3.441530000000000200e+00 5.765760000000000218e+00 3.375340000000000007e+00 5.743459999999999788e+00 4.360199999999999854e+00 4.148889999999999745e+00 1.154660000000000020e+00 5.802730000000000388e+00 5.002519999999999634e+00 3.448620000000000019e+00 7.249480000000000146e+00 5.860780000000000101e+00 5.749170000000000336e+00 5.832209999999999894e+00 6.636879999999999669e+00 1.148290000000000033e+00 7.284419999999999895e+00 7.485490000000000421e+00 3.446779999999999955e+00 8.727320000000000633e+00 8.339040000000000674e+00 5.746279999999999610e+00 5.718779999999999752e+00 1.666449999999999987e+00 1.147350000000000092e+00 7.168169999999999931e+00 2.523930000000000007e+00 3.442190000000000083e+00 8.598570000000000491e+00 3.369320000000000093e+00 5.741859999999999964e+00 7.196340000000000181e+00 4.151659999999999684e+00 1.148810000000000109e+00 8.634050000000000225e+00 5.007200000000000095e+00 3.458540000000000170e+00 1.007534000000000063e+01 5.869430000000000369e+00 5.740630000000000344e+00 8.680099999999999483e+00 6.629870000000000374e+00 1.149639999999999995e+00 1.012992000000000026e+01 7.490590000000000082e+00 3.459830000000000183e+00 1.156680000000000064e+01 8.327220000000000510e+00 5.749089999999999812e+00 8.544010000000000105e+00 1.667960000000000109e+00 1.141450000000000076e+00 1.000827999999999918e+01 2.523010000000000197e+00 3.443119999999999958e+00 1.145378000000000007e+01 3.377320000000000100e+00 5.745709999999999873e+00 1.004100000000000037e+01 4.149890000000000079e+00 1.147000000000000020e+00 1.149247000000000085e+01 5.012400000000000411e+00 3.454530000000000101e+00 1.294416999999999973e+01 5.859309999999999796e+00 5.751240000000000130e+00 1.152305999999999919e+01 6.618680000000000341e+00 1.146870000000000056e+00 1.297455000000000069e+01 7.476499999999999702e+00 3.434899999999999842e+00 1.439414000000000016e+01 8.352050000000000196e+00 5.741609999999999658e+00 8.771979999999999222e+00 1.000652000000000008e+01 6.892430000000000057e+00 5.885699999999999932e+00 8.291930000000000689e+00 2.301089999999999858e+00 7.328859999999999708e+00 9.140959999999999752e+00 4.586599999999999788e+00 1.432563999999999993e+01 5.053300000000000125e+00 6.886239999999999917e+00 1.143848000000000020e+01 3.326869999999999994e+00 2.304949999999999832e+00 4.378580000000000361e+00 4.191869999999999763e+00 4.608240000000000336e+00 7.283590000000000231e+00 7.511479999999999713e+00 6.885860000000000092e+00 1.291643999999999970e+01 5.810509999999999842e+00 2.308079999999999909e+00 5.848620000000000374e+00 6.670379999999999754e+00 4.592850000000000321e+00 7.280380000000000074e+00 7.439729999999999954e+00 8.269999999999999574e-03 4.298799999999999955e+00 8.580499999999999794e-01 2.290849999999999831e+00 1.017558000000000007e+01 9.145289999999999253e+00 4.606209999999999916e+00 8.651650000000000063e+00 5.053499999999999659e+00 6.893130000000000202e+00 5.754039999999999822e+00 3.343030000000000168e+00 2.305800000000000072e+00 7.210689999999999600e+00 4.181409999999999627e+00 4.592990000000000350e+00 5.799590000000000245e+00 4.967520000000000380e+00 3.279999999999999930e-03 7.253980000000000317e+00 5.827480000000000437e+00 2.286439999999999806e+00 8.682949999999999946e+00 6.674249999999999794e+00 4.595399999999999707e+00 9.999549999999999272e+00 2.570009999999999906e+00 6.892350000000000421e+00 1.156961000000000084e+01 8.297480000000000189e+00 2.300079999999999902e+00 1.300162000000000084e+01 9.154320000000000235e+00 4.599759999999999849e+00 1.148741000000000057e+01 5.048790000000000333e+00 6.892920000000000158e+00 8.604540000000000077e+00 3.337320000000000064e+00 2.298960000000000115e+00 1.003057000000000087e+01 4.182640000000000136e+00 4.587930000000000064e+00 1.297115999999999936e+01 7.535890000000000200e+00 6.883110000000000284e+00 1.008318000000000048e+01 5.816670000000000229e+00 2.288600000000000190e+00 1.154121999999999915e+01 6.671759999999999913e+00 4.592939999999999579e+00
2.920220000000000038e+00 1.663210000000000077e+00 1.176269999999999927e+00 4.418520000000000003e+00 2.472280000000000033e+00 3.550769999999999982e+00 5.909989999999999633e+00 3.313619999999999788e+00 5.904189999999999827e+00 4.372020000000000017e+00 4.121380000000000265e+00 1.179159999999999986e+00 5.871199999999999974e+00 4.947519999999999918e+00 3.547989999999999977e+00 7.371859999999999857e+00 5.787309999999999732e+00 5.910969999999999835e+00 5.847400000000000375e+00 6.589879999999999960e+00 1.182809999999999917e+00 7.354589999999999961e+00 7.417699999999999960e+00 3.549430000000000085e+00 8.832679999999999865e+00 8.256830000000000780e+00 5.907610000000000028e+00 5.793429999999999858e+00 1.641089999999999938e+00 1.173780000000000046e+00 7.290350000000000108e+00 2.484750000000000014e+00 3.544540000000000024e+00 8.777139999999999276e+00 3.316079999999999917e+00 5.918660000000000032e+00 7.271759999999999557e+00 4.129139999999999588e+00 1.175410000000000066e+00 8.742279999999999163e+00 4.958359999999999879e+00 3.528799999999999937e+00 1.024886000000000053e+01 5.785580000000000389e+00 5.907779999999999809e+00 8.726689999999999614e+00 6.599050000000000082e+00 1.185149999999999926e+00 1.021779000000000082e+01 7.423309999999999853e+00 3.547670000000000101e+00 1.170098999999999911e+01 8.258240000000000691e+00 5.902090000000000281e+00 8.674229999999999663e+00 1.643899999999999917e+00 1.175910000000000011e+00 1.017473999999999990e+01 2.472879999999999967e+00 3.550629999999999953e+00 1.166352999999999973e+01 3.332510000000000083e+00 5.904020000000000046e+00 1.014630999999999972e+01 4.123389999999999667e+00 1.183699999999999974e+00 1.161598000000000042e+01 4.954810000000000159e+00 3.538069999999999826e+00 1.313874000000000031e+01 5.785770000000000302e+00 5.897179999999999644e+00 1.160210000000000008e+01 6.584570000000000256e+00 1.176949999999999941e+00 1.309398000000000017e+01 7.424349999999999561e+00 3.541949999999999932e+00 1.459404999999999930e+01 8.255499999999999616e+00 5.907499999999999751e+00 4.397999999999999687e+00 7.410289999999999822e+00 6.190000000000000190e-03 1.498089999999999922e+00 8.378400000000000292e-01 2.355669999999999931e+00 2.993040000000000145e+00 1.672909999999999897e+00 4.720439999999999969e+00 1.467619999999999925e+00 2.470880000000000187e+00 7.259999999999999960e-03 1.158004000000000033e+01 3.317159999999999886e+00 2.368149999999999977e+00 4.464170000000000194e+00 4.139400000000000190e+00 4.725900000000000212e+00 2.931039999999999868e+00 4.943489999999999718e+00 4.329999999999999648e-03 1.305138999999999960e+01 5.772990000000000066e+00 2.369139999999999802e+00 5.920989999999999753e+00 6.603939999999999699e+00 4.731510000000000105e+00 7.261440000000000339e+00 7.409530000000000172e+00 5.570000000000000298e-03 4.370379999999999932e+00 8.326400000000000468e-01 2.362690000000000179e+00 1.026613000000000042e+01 9.069950000000000401e+00 4.725170000000000314e+00 8.825250000000000483e+00 4.964290000000000092e+00 7.086129999999999818e+00 5.840239999999999654e+00 3.295510000000000161e+00 2.350080000000000169e+00 7.323380000000000223e+00 4.147149999999999892e+00 4.727350000000000385e+00 1.028771000000000058e+01 7.438340000000000174e+00 7.090749999999999886e+00 7.290479999999999627e+00 5.761260000000000048e+00 2.363379999999999814e+00 8.793540000000000134e+00 6.607700000000000351e+00 4.726320000000000299e+00 1.023692999999999920e+01 2.493259999999999810e+00 7.075849999999999973e+00 1.164761000000000024e+01 8.237809999999999633e+00 2.366490000000000204e+00 8.751409999999999911e+00 1.673910000000000009e+00 4.721280000000000143e+00 1.169857999999999976e+01 4.971589999999999954e+00 7.081439999999999735e+00 8.706369999999999720e+00 3.307119999999999838e+00 2.368149999999999977e+00 1.020716999999999963e+01 4.132200000000000095e+00 4.731020000000000003e+00 8.673090000000000188e+00 4.941699999999999982e+00 8.229999999999999469e-03 1.016042999999999985e+01 5.780859999999999665e+00 2.367960000000000065e+00 1.167434000000000083e+01 6.612879999999999647e+00 4.737729999999999997e+00
2.879129999999999967e+00 1.649629999999999930e+00 1.175710000000000033e+00 4.370110000000000383e+00 2.522380000000000067e+00 3.529770000000000074e+00 5.859969999999999679e+00 3.383840000000000181e+00 5.888869999999999827e+00 4.333409999999999762e+00 4.081459999999999866e+00 1.159810000000000008e+00 5.848419999999999952e+00 4.946240000000000414e+00 3.516360000000000152e+00 7.309359999999999857e+00 5.813150000000000261e+00 5.886400000000000077e+00 5.814329999999999998e+00 6.502650000000000041e+00 1.184350000000000014e+00 7.287939999999999863e+00 7.367910000000000181e+00 3.518870000000000164e+00 8.788940000000000197e+00 8.245689999999999742e+00 5.878320000000000434e+00 5.683390000000000164e+00 1.655480000000000063e+00 1.181329999999999991e+00 7.160619999999999763e+00 2.526250000000000107e+00 3.524630000000000152e+00 8.664270000000000138e+00 3.394740000000000091e+00 5.873770000000000380e+00 7.137229999999999741e+00 4.089109999999999800e+00 1.175300000000000011e+00 8.635500000000000398e+00 4.946819999999999773e+00 3.525329999999999853e+00 1.011740999999999957e+01 5.817379999999999995e+00 5.887489999999999668e+00 8.616960000000000619e+00 6.520400000000000418e+00 1.174919999999999964e+00 1.010199000000000069e+01 7.376990000000000158e+00 3.531219999999999803e+00 1.159298000000000073e+01 8.256309999999999150e+00 5.895529999999999937e+00 8.490330000000000155e+00 1.645280000000000076e+00 1.179859999999999909e+00 9.967530000000000001e+00 2.510149999999999881e+00 3.517049999999999788e+00 1.146682000000000023e+01 3.396049999999999791e+00 5.883619999999999628e+00 9.952059999999999462e+00 4.075000000000000178e+00 1.177089999999999970e+00 1.145254000000000083e+01 4.938380000000000436e+00 3.540239999999999831e+00 1.294448000000000043e+01 5.830770000000000231e+00 5.886689999999999756e+00 1.141699000000000019e+01 6.505510000000000126e+00 1.175680000000000058e+00 1.289842999999999940e+01 7.379089999999999705e+00 3.534580000000000055e+00 1.439771999999999963e+01 8.241519999999999513e+00 5.873730000000000118e+00 8.852769999999999584e+00 9.882569999999999411e+00 7.046380000000000088e+00 1.489619999999999944e+00 8.712999999999999634e-01 2.351679999999999993e+00 1.138725999999999949e+01 1.741489999999999982e+00 4.700109999999999566e+00 9.866250000000000853e+00 2.432329999999999881e+00 1.131000000000000061e-02 1.136270000000000024e+01 3.301959999999999784e+00 2.351830000000000087e+00 1.285397000000000034e+01 4.167919999999999625e+00 4.704360000000000319e+00 7.403080000000000105e+00 7.469269999999999854e+00 7.050510000000000055e+00 4.427660000000000373e+00 5.719400000000000261e+00 2.357779999999999987e+00 5.919710000000000250e+00 6.591300000000000381e+00 4.696620000000000239e+00 2.817099999999999937e+00 1.511999999999999976e-02 1.940000000000000101e-03 4.296549999999999869e+00 8.729500000000000037e-01 2.354929999999999968e+00 5.780140000000000278e+00 1.746359999999999912e+00 4.694810000000000372e+00 4.258960000000000079e+00 2.438419999999999810e+00 3.989999999999999623e-03 5.764280000000000292e+00 3.298519999999999897e+00 2.352520000000000167e+00 7.252690000000000303e+00 4.169669999999999987e+00 4.701249999999999929e+00 1.020606000000000080e+01 7.468950000000000422e+00 7.049769999999999648e+00 7.227730000000000210e+00 5.724599999999999689e+00 2.356650000000000134e+00 8.716609999999999303e+00 6.597719999999999807e+00 4.710829999999999629e+00 9.989190000000000680e+00 7.276530000000000165e+00 1.074999999999999914e-02 1.149235999999999969e+01 8.154769999999999186e+00 2.353590000000000071e+00 8.584770000000000678e+00 1.753710000000000102e+00 4.701629999999999754e+00 1.153961999999999932e+01 5.044999999999999929e+00 7.052030000000000243e+00 8.562310000000000088e+00 3.300110000000000099e+00 2.352749999999999897e+00 1.005024000000000051e+01 4.170340000000000380e+00 4.704780000000000406e+00 1.301620999999999917e+01 7.471689999999999721e+00 7.048449999999999882e+00 1.002970000000000006e+01 5.726149999999999629e+00 2.353779999999999983e+00 1.153114000000000061e+01 6.591079999999999828e+00 4.696360000000000312e+00