-3.921906665999999859e+02
-3.924177131000000145e+02
-3.915944533300000217e+02
-3.903015819699999724e+02
-3.919092763900000023e+02
-3.925763185000000135e+02
-3.906302484700000264e+02
-3.911561173000000053e+02
-3.905995021100000031e+02
-3.907304370699999936e+02
-3.922997240199999851e+02
-3.928389019599999870e+02
-3.911098016199999847e+02
-3.907651121200000262e+02
-3.912786261100000047e+02
-3.925240411999999992e+02
-3.922083730300000184e+02
-3.921695022700000095e+02
-3.923264670400000114e+02
-3.916636990700000069e+02
-3.910276976600000012e+02
-3.919220690999999874e+02
-3.928438513400000147e+02
-3.925382429900000147e+02
-3.920430850000000191e+02
-3.918779870299999857e+02
-3.920494481200000223e+02
-3.915488910099999771e+02
-3.916353404700000169e+02
-3.920880574899999829e+02
-3.915976241600000094e+02
-3.924862703100000090e+02
-3.905059962400000018e+02
-4.000733186200000091e+02
-3.988187700099999802e+02
-3.972957219400000213e+02
-3.982383898799999997e+02
-4.002736884600000167e+02
-3.997172800800000232e+02
-3.983172672499999862e+02
-3.968614647399999740e+02
-3.986273862900000040e+02
-4.004502034299999877e+02
-3.996910940999999866e+02
-4.007830187600000045e+02
-4.004275350199999934e+02
-3.998581436299999723e+02
-4.000427982699999916e+02
-3.995279618199999732e+02
-3.991559624600000120e+02
-3.977339622599999984e+02
-3.985358842399999730e+02
-3.995713279799999782e+02
-3.998626164600000266e+02
-3.995193244000000163e+02
-4.008784999700000071e+02
-4.001179055399999811e+02
-4.005098337200000174e+02
-4.004678405000000225e+02
-4.002993730300000266e+02
-3.991311822000000120e+02
-4.003562361900000042e+02
-3.992113391500000148e+02
-4.004384093300000131e+02
-3.998887908400000128e+02
-3.996993757399999936e+02
