-5.450000046093867855e-04 -3.149999963316928728e-04 -2.219999938891935613e-04 1.000005725253170600e-06 3.025209805024264422e-12 6.669999999914163211e-04 -6.329999986952946234e-04 -3.649999922150577486e-04 5.170000070935829809e-04 1.000003493520300390e-06 6.289999989816680986e-04 -2.220000028695372381e-04 1.085999999999999943e-03 -9.321776568983981978e-12 -9.321776484185346609e-12 5.429999897082779612e-04 -3.130000086907847642e-04 -8.860000032372340089e-04 -6.330000013047053578e-04 3.650000030818801645e-04 -5.169999962267606735e-04 5.429999919314272517e-04 -9.400000046608882921e-04 -3.853772441342300838e-13 1.070373418844482127e-11 7.300000023515309340e-04 5.169999966796563155e-04 5.449999953991968831e-04 -3.140000056878037866e-04 -2.220000032498528088e-04 5.420000080685726668e-04 9.399999953476952802e-04 -8.927815652128293037e-12 -2.231732870084727068e-12 6.269999959655550830e-04 -8.870000028518567562e-04 5.420000102917219573e-04 3.129999993775918064e-04 8.859999939240411054e-04 -9.999999999999999547e-07 8.583588000906061061e-15 8.583587922822603378e-15 -5.430000102917219816e-04 -3.129999993690082321e-04 -8.859999939154574768e-04 2.231732870084725453e-12 -6.259999959701036121e-04 8.860000028473083954e-04 -5.430000080685726911e-04 -9.399999953391116516e-04 8.936399240051116828e-12 -5.449999953991968831e-04 3.140000056878037866e-04 2.220000032498528088e-04 -1.070373418844482127e-11 -7.310000023469826217e-04 -5.159999966751079546e-04 -5.429999919400108803e-04 9.390000046608882678e-04 3.899256600895051775e-13 6.330000013047053578e-04 -3.650000030818801645e-04 5.169999962267606735e-04 -5.429999897082779612e-04 3.130000086907847642e-04 8.860000032372340089e-04 -1.085000000000000027e-03 9.313192980983076860e-12 9.313192896262524433e-12 -3.493520300478783299e-12 -6.289999989902517272e-04 2.220000028609536366e-04 6.329999987038782520e-04 3.659999922150577729e-04 -5.170000070981314259e-04 -5.725253170563508752e-12 -3.033793393025170347e-12 -6.669999999999999497e-04 5.450000046008031569e-04 3.139999963316928485e-04 2.219999938937419791e-04 0.000000000000000000e+00 0.000000000000000000e+00 0.000000000000000000e+00 -1.270000024205718238e-04 -7.299999986050324070e-05 -2.089999985778499890e-04 1.270000024291553981e-04 7.299999986505165855e-05 2.099999985778499862e-04 -1.270000018969729186e-04 -2.219999989053359022e-04 1.000002099864008174e-06 -5.019999957940418861e-04 2.870000052322895737e-04 2.030000030035657675e-04 5.321824536355888075e-13 -1.489999990402842301e-04 2.110000006777139944e-04 1.270000018969729186e-04 2.219999989053359022e-04 -1.000002099864008174e-06 -5.235988656737243530e-13 1.499999990402842273e-04 -2.110000006822624122e-04 5.029999957940419104e-04 -2.870000052408731481e-04 -2.030000030121493419e-04 -2.559999999828328396e-04 1.000002201946944081e-06 1.000002192850092290e-06 -3.000003227429073463e-06 -5.789999990509207307e-04 2.030000026592836018e-04 -1.289999975365102385e-04 7.500000207154701535e-05 2.120000007661516580e-04 -2.000005270323008571e-06 -1.000002771011759306e-06 -6.129999999782844529e-04 5.010000042317089850e-04 2.889999966274992395e-04 2.039999943851302368e-04 -2.079999995536534142e-04 -1.199999974322861663e-04 1.720000023311961965e-04 -1.299999980772762896e-04 2.240000011158664291e-04 9.702125598535191386e-14 -2.080000004120122084e-04 1.220000010121556074e-04 -1.699999987695204810e-04 -1.999996463561759764e-06 2.410000007949463061e-04 1.709999989209989445e-04 2.559999999828328396e-04 -1.000002201946944081e-06 -1.000002192850092290e-06 1.299999975450938101e-04 -7.500000207558218544e-05 -2.110000007747352352e-04 2.000003227429073296e-06 5.789999990595043593e-04 -2.030000026507000274e-04 1.289999980772762924e-04 -2.240000011072828547e-04 -8.843766806252933415e-14 1.999996472145347706e-06 -2.410000007903978882e-04 -1.699999989209989473e-04 2.080000004205958099e-04 -1.220000010076071896e-04 1.709999987695204782e-04 2.000005270323008571e-06 1.000002771011759306e-06 6.129999999782844529e-04 2.079999995536534142e-04 1.199999974322861663e-04 -1.720000023311961965e-04 -5.000000042317089607e-04 -2.889999966360828139e-04 -2.039999943937138383e-04
1.172009999999999996e-01 1.010319999999999968e-01 9.089400000000000257e-02 -5.647900000000000142e-02 -1.380460000000000020e-01 -2.366800000000000015e-01 9.203000000000000069e-02 2.452299999999999966e-02 -4.326499999999999790e-02 -1.235770000000000063e-01 -5.713499999999999829e-02 -6.980899999999999606e-02 2.269809999999999883e-01 6.076499999999999957e-02 -2.275139999999999940e-01 1.043380000000000002e-01 -1.562699999999999853e-02 2.131840000000000124e-01 1.414189999999999892e-01 -2.289289999999999936e-01 1.791290000000000104e-01 1.045899999999999955e-02 -9.467499999999999527e-02 -1.214230000000000032e-01 -5.257900000000000074e-02 -3.020200000000000107e-01 5.482800000000000173e-02 -2.470819999999999961e-01 -3.744100000000000206e-02 -6.053499999999999853e-02 1.310669999999999891e-01 5.423900000000000249e-02 3.239100000000000312e-02 2.165900000000000117e-02 1.847100000000000131e-02 -3.048199999999999868e-02 3.631999999999999812e-03 1.873080000000000023e-01 1.609879999999999922e-01 6.195099999999999912e-02 1.554689999999999961e-01 -1.497739999999999905e-01 -1.450110000000000010e-01 5.569999999999999951e-02 1.573199999999999946e-02 -2.017299999999999996e-02 -5.511300000000000227e-02 1.707680000000000031e-01 -1.602389999999999926e-01 -1.589689999999999992e-01 -8.071899999999999908e-02 1.434140000000000137e-01 -1.231750000000000067e-01 1.746030000000000082e-01 1.899560000000000137e-01 -5.799300000000000288e-02 2.289680000000000049e-01 1.597600000000000062e-02 -1.249419999999999975e-01 -2.663599999999999995e-02 -2.274410000000000043e-01 2.844999999999999959e-02 1.265900000000000011e-02 3.772899999999999865e-02 2.294970000000000065e-01 -1.448699999999999988e-02 -8.000200000000000367e-02 9.317100000000000382e-02 -1.443639999999999923e-01 8.390200000000000435e-02 1.939659999999999995e-01 2.710299999999999862e-02 -1.226499999999999951e-01 -3.241859999999999742e-01 1.738059999999999883e-01 1.134190000000000059e-01 1.754149999999999876e-01 5.782899999999999846e-02 -5.191599999999999687e-02 -1.388479999999999992e-01 1.154739999999999933e-01 1.692600000000000007e-02 5.592199999999999949e-02 -6.820500000000000174e-02 -8.570200000000000040e-02 4.831799999999999984e-02 -6.345199999999999452e-02 5.603099999999999747e-02 3.746360000000000245e-01 5.322500000000000148e-02 9.371799999999999575e-02 -2.445180000000000131e-01 9.495299999999999574e-02 -2.090470000000000106e-01 -9.563599999999999879e-02 6.589699999999999724e-02 -2.684019999999999739e-01 -3.345299999999999663e-02 -9.830700000000000549e-02 1.245909999999999934e-01 1.041610000000000036e-01 -2.416200000000000014e-01 4.491400000000000253e-02 9.367699999999999638e-02 -2.486000000000000015e-02 -1.596090000000000009e-01 1.809759999999999980e-01 -7.260800000000000587e-02 -2.307470000000000077e-01 7.912000000000000630e-03 -8.182999999999999996e-02 -5.119900000000000145e-02 -6.406900000000000095e-02 7.150000000000000105e-03 -2.576499999999999971e-02 1.377889999999999948e-01 1.688669999999999893e-01 -1.310379999999999878e-01 5.468999999999999903e-03 -9.496799999999999686e-02 2.600399999999999934e-02 3.314130000000000131e-01 2.542980000000000240e-01 1.731290000000000051e-01 -2.473319999999999963e-01 -2.955500000000000141e-02 -3.604299999999999865e-02 1.796879999999999866e-01 -1.588600000000000081e-02 -4.367900000000000255e-02 -6.653699999999999892e-02 3.522600000000000037e-02 7.019100000000000339e-02 -9.460699999999999665e-02 -1.812340000000000062e-01 9.484299999999999675e-02 7.468199999999999839e-02 -8.922099999999999476e-02 2.218779999999999919e-01 -7.910399999999999376e-02 7.624200000000000421e-02 -4.398500000000000326e-02 1.340480000000000005e-01 -1.243059999999999998e-01 2.948620000000000130e-01 -1.266629999999999978e-01 -1.500009999999999954e-01 -1.302059999999999884e-01 7.869299999999999906e-02 -4.621600000000000014e-02 -1.712299999999999933e-02 -7.260800000000000587e-02 2.483499999999999944e-02 -5.670200000000000240e-02 -1.506190000000000029e-01 6.054500000000000159e-02 7.245999999999999837e-03 1.312800000000000078e-02 8.504299999999999360e-02 5.692699999999999844e-02 -6.627199999999999758e-02 -4.667999999999999927e-02
-8.787200000000000566e-02 1.618499999999999939e-01 2.519730000000000025e-01 -4.494499999999999884e-02 -2.589299999999999935e-02 -5.734800000000000314e-02 3.902000000000000086e-03 -1.636350000000000027e-01 2.383300000000000002e-02 -1.739100000000000090e-01 -4.313100000000000267e-02 2.151430000000000009e-01 6.425200000000000355e-02 -2.608699999999999908e-02 -9.816099999999999826e-02 3.620799999999999713e-02 -7.048999999999999710e-03 -5.536599999999999855e-02 1.167220000000000063e-01 -2.886599999999999930e-02 3.749799999999999661e-02 5.631200000000000094e-02 -3.874999999999999972e-03 -2.035999999999999963e-02 1.308999999999999886e-01 5.498000000000000109e-02 -1.196640000000000065e-01 -6.901300000000000490e-02 -1.246379999999999988e-01 7.569599999999999940e-02 -5.749400000000000344e-02 4.386400000000000021e-02 -5.035699999999999898e-02 -1.310820000000000041e-01 -3.797699999999999687e-02 -2.059999999999999928e-04 8.768800000000000205e-02 3.351319999999999855e-01 -7.680000000000000195e-03 3.551200000000000190e-02 -1.337799999999999927e-02 1.504400000000000008e-02 -7.545999999999999930e-02 8.289599999999999747e-02 -2.885899999999999924e-02 -2.328340000000000132e-01 9.023899999999999977e-02 2.316300000000000026e-01 -8.626100000000000434e-02 4.142699999999999855e-02 -1.836300000000000085e-02 -2.014410000000000089e-01 -1.480199999999999919e-02 2.201700000000000046e-01 1.323570000000000024e-01 -2.345669999999999977e-01 9.853800000000000059e-02 2.259619999999999962e-01 -4.144099999999999867e-02 -2.936130000000000129e-01 1.902000000000000045e-03 -9.347199999999999953e-02 1.786199999999999941e-02 3.668099999999999833e-02 9.936999999999999653e-03 1.541899999999999937e-01 -8.135000000000000564e-02 -6.146599999999999980e-02 -2.830159999999999898e-01 -1.618060000000000054e-01 2.230570000000000053e-01 2.039710000000000134e-01 -1.546659999999999979e-01 1.559919999999999918e-01 3.517779999999999796e-01 -3.328199999999999908e-02 -2.297599999999999990e-02 -6.366399999999999837e-02 -4.251699999999999924e-02 -6.240699999999999720e-02 -1.067280000000000034e-01 -2.598940000000000139e-01 1.327349999999999919e-01 1.222860000000000058e-01 -8.669899999999999829e-02 1.639510000000000134e-01 -2.020770000000000066e-01 -6.875900000000000067e-02 -2.669499999999999998e-02 1.105679999999999996e-01 1.546839999999999882e-01 2.317099999999999993e-01 7.023999999999999862e-03 -1.038329999999999947e-01 -1.428879999999999872e-01 -2.905820000000000070e-01 3.224150000000000071e-01 2.437999999999999889e-01 -2.235489999999999977e-01 2.794550000000000090e-01 -2.576450000000000129e-01 -2.016719999999999902e-01 -4.750900000000000262e-02 1.528099999999999944e-02 2.269049999999999956e-01 -7.003700000000000203e-02 -1.133580000000000004e-01 -1.714000000000000029e-03 4.054289999999999838e-01 1.336789999999999923e-01 8.110199999999999354e-02 1.065019999999999994e-01 -2.417640000000000067e-01 -1.909589999999999899e-01 -3.492499999999999771e-02 -3.271899999999999809e-02 -1.539129999999999943e-01 -1.610580000000000067e-01 6.151000000000000217e-03 2.519330000000000180e-01 -3.039800000000000141e-02 7.923600000000000088e-02 6.027699999999999725e-02 -6.503100000000000547e-02 1.751010000000000066e-01 -1.245070000000000066e-01 -6.930000000000000396e-04 -1.221420000000000006e-01 1.199399999999999945e-02 -1.603000000000000041e-03 -7.291699999999999571e-02 2.077800000000000133e-02 -1.473770000000000080e-01 -1.178900000000000087e-02 7.154999999999999902e-03 2.772099999999999911e-02 4.948299999999999921e-02 2.502000000000000057e-02 2.511829999999999896e-01 1.158190000000000053e-01 -3.164150000000000018e-01 4.310200000000000142e-02 3.249500000000000305e-02 1.863000000000000073e-02 -2.908799999999999927e-02 -4.046000000000000117e-03 1.719080000000000052e-01 -1.452950000000000075e-01 -1.215610000000000024e-01 2.245540000000000036e-01 -4.329299999999999815e-02 1.645900000000000141e-02 -3.333799999999999958e-02 -4.190900000000000181e-02 -1.436040000000000094e-01 -7.178099999999999759e-02 8.337799999999999379e-02 -5.123500000000000276e-02 -5.484399999999999692e-02 3.690669999999999784e-01 -2.472489999999999966e-01 -1.687259999999999871e-01
-2.407199999999999895e-01 3.418240000000000167e-01 1.936809999999999921e-01 -3.211200000000000165e-02 3.761849999999999916e-01 1.017089999999999939e-01 -2.540669999999999873e-01 5.355100000000000138e-02 -2.067910000000000026e-01 1.490039999999999976e-01 -5.741399999999999976e-02 1.158060000000000062e-01 -3.235509999999999775e-01 -4.842400000000000176e-02 1.755599999999999869e-02 9.757899999999999907e-02 1.999720000000000109e-01 -3.022369999999999779e-01 -1.653860000000000052e-01 -2.718019999999999881e-01 1.850739999999999885e-01 -3.021490000000000009e-01 -2.853699999999999987e-02 2.982560000000000211e-01 1.151549999999999935e-01 -5.151200000000000223e-02 -1.016610000000000014e-01 1.500049999999999994e-01 5.784500000000000058e-02 -3.150000000000000131e-04 -4.591400000000000342e-02 -3.996100000000000346e-02 -9.161500000000000199e-02 3.527759999999999785e-01 3.516119999999999801e-01 -4.038599999999999829e-02 -9.448600000000000054e-02 -1.269530000000000103e-01 -3.722500000000000114e-02 1.678099999999999870e-01 -9.668300000000000505e-02 3.362479999999999913e-01 2.360069999999999946e-01 -2.470360000000000056e-01 -3.627429999999999821e-01 6.683999999999999664e-02 1.496599999999999875e-01 -2.547590000000000132e-01 3.828480000000000216e-01 2.804519999999999791e-01 2.557320000000000149e-01 -2.227200000000000013e-02 -2.619179999999999842e-01 -1.461280000000000079e-01 1.616750000000000131e-01 2.800070000000000059e-01 8.314000000000000556e-02 1.970500000000000029e-02 2.576030000000000264e-01 -2.070950000000000013e-01 -1.143939999999999957e-01 3.703020000000000200e-01 -3.696389999999999953e-01 1.337299999999999947e-02 -1.639339999999999964e-01 3.955499999999999988e-02 1.765970000000000040e-01 -2.709639999999999826e-01 2.623900000000000121e-01 -2.496120000000000005e-01 -1.410399999999999987e-01 -6.124600000000000183e-02 5.818999999999999867e-02 -2.403800000000000034e-02 2.269799999999999943e-02 -3.551499999999999796e-02 -5.431199999999999917e-02 -4.427699999999999692e-02 -1.391870000000000052e-01 -1.855999999999999872e-01 -1.583299999999999985e-02 -7.942799999999999860e-02 -2.087999999999999926e-02 -6.127200000000000008e-02 2.899399999999999755e-01 9.908300000000000440e-02 2.048870000000000136e-01 -3.201099999999999779e-02 -1.307800000000000074e-01 7.199600000000000444e-02 -2.525169999999999915e-01 -2.051860000000000073e-01 1.895679999999999865e-01 -2.336989999999999901e-01 -4.949999999999999973e-04 -2.586330000000000018e-01 1.814810000000000034e-01 1.287669999999999926e-01 1.524760000000000004e-01 -1.435809999999999864e-01 2.461409999999999987e-01 2.467350000000000099e-01 1.566839999999999899e-01 6.150599999999999817e-02 1.000670000000000032e-01 4.145570000000000088e-01 3.097400000000000153e-02 -3.248909999999999854e-01 1.158819999999999989e-01 4.949800000000000033e-02 -1.203899999999999935e-02 9.003300000000000192e-02 -4.097330000000000139e-01 -3.415460000000000163e-01 -2.168099999999999888e-02 -2.133569999999999911e-01 -1.299609999999999932e-01 -3.790700000000000319e-02 -1.597339999999999871e-01 2.795999999999999874e-02 2.457519999999999982e-01 1.470569999999999933e-01 -2.393309999999999882e-01 1.481490000000000029e-01 -1.249249999999999944e-01 1.679869999999999974e-01 -4.090200000000000086e-02 5.464299999999999713e-02 1.184510000000000007e-01 -4.235499999999999682e-02 -7.670399999999999441e-02 8.539399999999999769e-02 -1.936420000000000086e-01 -2.120299999999999963e-02 -8.838100000000000123e-02 -4.258499999999999786e-02 -3.659500000000000253e-02 1.452950000000000075e-01 -3.437060000000000115e-01 -1.009250000000000008e-01 9.201600000000000057e-02 -1.678189999999999960e-01 -9.642499999999999682e-02 4.145999999999999686e-02 7.959700000000000109e-02 -9.287199999999999622e-02 1.794779999999999986e-01 -4.175299999999999845e-02 -1.072099999999999963e-02 -1.445249999999999868e-01 -1.004500000000000011e-02 -1.211519999999999958e-01 2.606780000000000208e-01 8.768800000000000205e-02 7.079100000000000670e-02 1.066659999999999969e-01 -6.528899999999999981e-02 4.841000000000000164e-02 -1.708050000000000124e-01 -1.890400000000000136e-01 2.359320000000000028e-01 -8.962100000000000621e-02
8.712999999999999912e-02 -1.604289999999999883e-01 1.524359999999999882e-01 -1.086820000000000008e-01 -8.320900000000000518e-02 8.685900000000000565e-02 1.801510000000000056e-01 -6.270199999999999385e-02 3.082999999999999977e-02 -7.765099999999999780e-02 -6.273199999999999610e-02 -4.997700000000000059e-02 1.361799999999999955e-01 4.123799999999999688e-02 3.413100000000000162e-02 -5.885399999999999660e-02 6.740999999999999596e-03 -9.559900000000000342e-02 2.634270000000000223e-01 -3.804899999999999949e-02 3.650300000000000072e-02 5.857300000000000006e-02 3.786400000000000182e-02 -7.892699999999999716e-02 -8.652500000000000469e-02 6.629999999999999609e-03 -6.797000000000000264e-02 -1.105999999999999995e-03 -6.147600000000000287e-02 -1.825900000000000092e-02 7.171399999999999997e-02 -9.592499999999999638e-02 9.988600000000000256e-02 1.163710000000000022e-01 4.748000000000000137e-02 2.698499999999999857e-02 1.453909999999999925e-01 2.484199999999999950e-02 3.350000000000000200e-02 2.100720000000000087e-01 -7.149199999999999999e-02 -2.775619999999999754e-01 2.157810000000000006e-01 -2.668610000000000149e-01 5.237399999999999695e-02 6.840100000000000346e-02 6.967600000000000182e-02 3.697199999999999792e-02 3.670000000000000085e-03 -7.060400000000000009e-02 -3.061079999999999912e-01 1.048720000000000069e-01 2.021439999999999904e-01 -8.374600000000000100e-02 2.455040000000000000e-01 4.119799999999999851e-02 2.046370000000000133e-01 -9.506599999999999773e-02 -3.650000000000000033e-03 4.699500000000000205e-02 -2.435319999999999985e-01 2.462200000000000152e-02 -1.127890000000000004e-01 -6.813299999999999912e-02 5.639600000000000168e-02 1.283900000000000041e-01 -2.701740000000000252e-01 -1.661410000000000109e-01 -1.971099999999999935e-02 -2.100539999999999907e-01 1.075630000000000058e-01 -1.229139999999999955e-01 -2.372259999999999924e-01 1.238309999999999966e-01 2.352699999999999930e-02 -9.657000000000000306e-02 2.192870000000000097e-01 2.268209999999999948e-01 1.692609999999999948e-01 -1.229370000000000046e-01 -3.215300000000000102e-02 -1.712019999999999931e-01 -2.885300000000000017e-02 4.976400000000000268e-02 -1.199640000000000012e-01 1.200159999999999977e-01 -1.824649999999999883e-01 1.386800000000000012e-02 2.282049999999999912e-01 2.084249999999999992e-01 9.127100000000000490e-02 -1.950300000000000089e-01 1.912909999999999888e-01 1.197079999999999950e-01 1.582069999999999865e-01 -1.241099999999999981e-01 -2.448230000000000128e-01 -8.483599999999999475e-02 -1.694779999999999898e-01 1.083660000000000040e-01 3.127400000000000180e-01 1.484090000000000131e-01 1.334329999999999961e-01 3.945200000000000096e-02 -2.496970000000000023e-01 3.186400000000000343e-02 -4.568500000000000338e-02 -3.404900000000000287e-02 -1.284599999999999909e-01 1.890519999999999978e-01 -1.548529999999999907e-01 -1.794949999999999879e-01 2.422500000000000001e-02 1.540729999999999877e-01 -1.754789999999999961e-01 1.049130000000000063e-01 -1.592069999999999874e-01 -7.502899999999999847e-02 -6.004099999999999715e-02 -2.589999999999999854e-03 1.907949999999999924e-01 -7.015000000000000402e-02 -1.001189999999999997e-01 -1.694630000000000025e-01 1.948580000000000034e-01 5.366100000000000037e-02 -8.090500000000000469e-02 -1.033369999999999983e-01 3.794000000000000063e-03 -2.646180000000000199e-01 -2.151609999999999912e-01 2.437060000000000060e-01 1.203840000000000049e-01 -3.108700000000000005e-02 -5.357999999999999916e-03 3.192169999999999730e-01 -9.986899999999999944e-02 -4.777599999999999902e-02 -7.539500000000000368e-02 2.236499999999999946e-02 -1.043570000000000053e-01 7.328199999999999992e-02 -5.842900000000000177e-02 -1.461850000000000094e-01 -5.715699999999999947e-02 1.087899999999999978e-02 -2.002500000000000113e-02 -1.286970000000000058e-01 -2.729200000000000029e-02 -1.648719999999999908e-01 3.641249999999999765e-01 1.812040000000000040e-01 1.788480000000000070e-01 -3.329100000000000115e-02 -2.125640000000000029e-01 1.835100000000000064e-01 8.771600000000000230e-02 -5.728999999999999718e-03 1.999859999999999971e-01 -2.729759999999999964e-01 -9.135799999999999477e-02 9.454400000000000304e-02
-1.374579999999999969e-01 -1.781469999999999998e-01 1.040149999999999963e-01 2.811299999999999910e-02 2.278290000000000037e-01 -1.567870000000000097e-01 1.641400000000000151e-02 4.210699999999999860e-02 1.179919999999999997e-01 3.276620000000000088e-01 -1.603500000000000064e-02 1.075720000000000010e-01 4.541800000000000004e-02 -2.415000000000000046e-03 -1.420150000000000023e-01 -1.375099999999999933e-02 -9.289300000000000335e-02 -7.757000000000000006e-02 7.146999999999999707e-03 2.725199999999999845e-02 2.735800000000000037e-02 -2.728510000000000102e-01 5.448299999999999671e-02 -1.330069999999999864e-01 1.001240000000000047e-01 5.612299999999999928e-02 7.683800000000000352e-02 1.603020000000000000e-01 1.968310000000000060e-01 8.902000000000000191e-02 1.161900000000000016e-01 3.725099999999999939e-02 -1.348280000000000034e-01 8.357900000000000051e-02 -4.332799999999999846e-02 -2.568059999999999787e-01 -1.720649999999999957e-01 -1.967909999999999937e-01 2.959699999999999831e-02 5.396600000000000008e-02 -2.298270000000000035e-01 2.197010000000000074e-01 6.483500000000000374e-02 1.059999999999999961e-03 2.872200000000000100e-02 -1.490200000000000136e-01 -1.220170000000000005e-01 -1.405959999999999988e-01 1.241379999999999983e-01 2.291899999999999840e-02 -3.817299999999999860e-02 2.210370000000000112e-01 -4.026899999999999924e-02 1.304079999999999961e-01 -2.872800000000000006e-02 1.634720000000000062e-01 1.196450000000000014e-01 -2.129040000000000099e-01 1.787189999999999890e-01 -8.397699999999999609e-02 -2.068199999999999900e-02 -1.011149999999999965e-01 2.914800000000000030e-02 -3.536690000000000111e-01 -7.114499999999999991e-02 3.512200000000000044e-02 1.240760000000000057e-01 2.606199999999999836e-02 1.665010000000000101e-01 -1.970820000000000072e-01 7.820799999999999974e-02 2.195439999999999892e-01 9.764000000000000110e-03 2.131270000000000109e-01 8.728400000000000047e-02 2.218200000000000033e-02 7.474200000000000288e-02 1.259599999999999956e-02 -2.215709999999999902e-01 7.876400000000000068e-02 -6.369999999999999794e-04 -1.502100000000000102e-01 7.773000000000000395e-03 -1.953600000000000059e-01 6.395199999999999496e-02 -1.236150000000000027e-01 1.647579999999999878e-01 1.183270000000000016e-01 -1.731699999999999906e-01 1.194660000000000027e-01 -4.906999999999999904e-03 6.991200000000000192e-02 -1.232270000000000032e-01 1.835950000000000082e-01 -1.657579999999999887e-01 -1.013899999999999940e-01 -1.256400000000000017e-01 -1.341009999999999980e-01 8.047999999999999599e-03 -6.460499999999999576e-02 -7.813999999999999765e-03 -7.520399999999999308e-02 -5.630399999999999988e-02 -3.133799999999999780e-02 -5.476899999999999824e-02 2.056699999999999848e-02 1.485339999999999994e-01 -3.307399999999999923e-02 1.198049999999999948e-01 6.686599999999999488e-02 -1.254659999999999942e-01 4.875600000000000073e-02 3.570999999999999956e-03 -1.201600000000000064e-02 -1.714100000000000068e-01 1.215949999999999948e-01 2.428000000000000037e-03 -8.466600000000000514e-02 5.421600000000000030e-02 8.756700000000000594e-02 -1.736300000000000066e-01 -9.676000000000000573e-03 1.868410000000000071e-01 7.059899999999999509e-02 -1.952929999999999944e-01 4.659399999999999653e-02 -1.134359999999999952e-01 1.099999999999999971e-05 -3.994899999999999840e-02 8.378399999999999737e-02 2.849849999999999883e-01 4.535899999999999654e-02 -1.464400000000000077e-02 3.046499999999999903e-02 1.559499999999999949e-02 8.309999999999999332e-02 1.112100000000000068e-02 2.605600000000000138e-01 -1.715420000000000000e-01 -9.840000000000000656e-04 -1.195640000000000036e-01 -1.126849999999999935e-01 -1.724160000000000137e-01 1.277389999999999914e-01 1.210029999999999994e-01 -1.568360000000000032e-01 6.938700000000000423e-02 1.283100000000000074e-01 -7.092400000000000093e-02 -1.040250000000000064e-01 8.807000000000000592e-03 1.521389999999999965e-01 -8.603700000000000236e-02 2.693519999999999803e-01 5.474199999999999899e-02 -1.751790000000000014e-01 2.314799999999999913e-01 -2.063800000000000009e-02 -1.030979999999999952e-01 -3.292199999999999988e-02 -1.283330000000000026e-01 -2.226519999999999888e-01
7.618700000000000472e-02 1.371300000000000019e-01 1.144540000000000002e-01 -1.667599999999999916e-01 1.285400000000000084e-02 5.984999999999999869e-03 -1.499910000000000132e-01 1.611619999999999997e-01 -2.533409999999999829e-01 4.889899999999999802e-02 -3.988300000000000178e-02 3.178960000000000119e-01 -3.705260000000000220e-01 -5.421800000000000230e-02 2.852060000000000151e-01 2.629489999999999883e-01 1.182610000000000050e-01 -1.950320000000000109e-01 -2.093760000000000066e-01 5.215600000000000097e-02 -5.375800000000000023e-02 2.920530000000000070e-01 1.797330000000000039e-01 2.541070000000000273e-01 -1.281670000000000031e-01 3.122999999999999908e-03 -1.886609999999999954e-01 3.566099999999999826e-02 -6.732599999999999696e-02 -6.316299999999999693e-02 2.336950000000000138e-01 -1.051639999999999936e-01 3.716099999999999959e-02 1.442680000000000073e-01 3.235000000000000028e-03 -4.484699999999999798e-02 2.973700000000000232e-01 -2.943720000000000225e-01 -5.045000000000000179e-02 2.858649999999999802e-01 2.595099999999999837e-02 8.742700000000000471e-02 2.323580000000000090e-01 -2.939999999999999905e-04 -2.938629999999999853e-01 1.604240000000000110e-01 -2.300709999999999977e-01 1.177649999999999947e-01 5.247999999999999887e-02 -1.636990000000000112e-01 2.394999999999999907e-02 9.176299999999999735e-02 -1.458560000000000134e-01 -3.946950000000000180e-01 -2.253350000000000075e-01 1.087230000000000002e-01 -2.589100000000000082e-02 1.587030000000000107e-01 2.331679999999999864e-01 2.057509999999999895e-01 -1.178010000000000029e-01 -6.098300000000000248e-02 -1.019049999999999956e-01 -1.496600000000000014e-02 1.854540000000000077e-01 1.423129999999999951e-01 -1.608040000000000025e-01 1.533339999999999981e-01 -1.153949999999999976e-01 -3.149100000000000232e-01 -1.828549999999999898e-01 -1.862759999999999971e-01 -7.861100000000000032e-02 -7.681300000000000627e-02 1.197399999999999992e-01 1.445399999999999983e-02 -9.731299999999999673e-02 -2.691699999999999995e-02 7.025399999999999701e-02 2.049980000000000135e-01 -6.029999999999999770e-03 2.650020000000000153e-01 2.073959999999999970e-01 2.116389999999999938e-01 -4.339200000000000002e-02 -1.141800000000000037e-01 -7.770100000000000617e-02 -5.107000000000000428e-03 -2.405499999999999999e-02 1.157099999999999969e-02 1.717210000000000125e-01 -1.672770000000000090e-01 -1.624659999999999993e-01 8.650700000000000056e-02 -1.010299999999999948e-01 -4.395500000000000101e-02 2.337940000000000018e-01 -2.211099999999999871e-02 7.555299999999999516e-02 -1.571990000000000054e-01 -2.114399999999999960e-02 6.595299999999999774e-02 -3.127900000000000125e-02 1.200600000000000001e-01 -2.121580000000000132e-01 -1.672589999999999910e-01 9.199000000000000232e-02 1.170699999999999935e-01 -3.633049999999999891e-01 -2.357460000000000111e-01 6.724800000000000222e-02 -1.086460000000000065e-01 1.352599999999999983e-02 -2.862999999999999920e-02 1.172460000000000030e-01 -8.745899999999999508e-02 2.561399999999999788e-01 1.153560000000000002e-01 -1.706439999999999901e-01 5.795999999999999937e-03 -1.465239999999999876e-01 7.617899999999999672e-02 -1.145440000000000069e-01 -1.790549999999999919e-01 2.060400000000000079e-02 1.264720000000000011e-01 3.401499999999999663e-02 1.305530000000000024e-01 1.278320000000000012e-01 -1.275000000000000092e-03 1.080809999999999965e-01 -2.602990000000000026e-01 -8.063299999999999634e-02 1.487000000000000040e-03 -9.929599999999999538e-02 2.811770000000000103e-01 2.356689999999999896e-01 -2.120869999999999977e-01 3.747999999999999943e-02 -3.950000000000000386e-03 -8.266700000000000437e-02 -3.082000000000000017e-02 -2.540839999999999765e-01 5.607999999999999791e-02 -1.549000000000000030e-03 -6.378000000000000336e-02 1.223410000000000053e-01 -9.291199999999999459e-02 1.307000000000000002e-03 -8.219700000000000617e-02 1.148899999999999921e-02 -2.112299999999999942e-02 7.278700000000000447e-02 -2.196629999999999971e-01 2.325299999999999936e-02 1.285979999999999901e-01 -1.673099999999999934e-02 8.156999999999999321e-03 -2.318800000000000028e-02 -2.285719999999999974e-01 1.878879999999999995e-01 2.425769999999999871e-01