2.196824537985735759e+01 2.171833779390164651e-05 1.357396080613421522e-05 2.171833779390164651e-05 2.196821823193408463e+01 8.144376346055516089e-06 1.357396080613421522e-05 8.144376346055516089e-06 2.196820465797289046e+01
-1.381021862361853714e+01 -1.660362314339966971e+01 -8.400488505385034443e+00 -1.660362314339966971e+01 -1.410462287408681981e+01 -5.839361595143627959e+00 -8.400488505385034443e+00 -5.839361595143627959e+00 1.558511568549403847e+01
4.855969215843278874e+01 6.023291898011869927e-01 -7.994981214785436663e+00 6.023291898011869927e-01 2.633489300407208855e+00 1.826626780768491187e+01 -7.994981214785436663e+00 1.826626780768491187e+01 1.116779989896387981e+01
5.954305358054843111e+01 1.903307422588200737e+01 -5.016460500136672440e-01 1.903307422588200737e+01 3.124648775424408242e+01 1.513958229107735143e+01 -5.016460500136672440e-01 1.513958229107735143e+01 4.564585764578929172e+01
1.392119633900136400e+01 -1.793972854358176505e+01 -5.564828132965525143e+00 -1.793972854358176505e+01 7.588768439030027402e+00 -5.313827473911436172e+00 -5.564828132965525143e+00 -5.313827473911436172e+00 3.409143387603548092e+01
-1.052744005895509360e+01 -1.182065659755013165e+01 -1.296193088913006086e+01 -1.182065659755013165e+01 3.393241878322291516e+00 -3.691214046378450853e+00 -1.296193088913006086e+01 -3.691214046378450853e+00 -2.104504889387671085e+01
3.711621276765233546e+01 -2.448292447865426524e+01 -2.085925155330075143e+01 -2.448292447865426524e+01 4.971350829035998231e+01 -1.527680587895789976e+01 -2.085925155330075143e+01 -1.527680587895789976e+01 -3.047683438478535400e+00
1.661840568165991883e+01 5.498050490410459901e+00 4.547876789403759723e+00 5.498050490410459901e+00 4.702424203317235651e+00 -1.080813579500391519e+01 4.547876789403759723e+00 -1.080813579500391519e+01 6.244338007367070276e+01
-8.338822980655917760e+00 4.749080540321749311e+00 -1.812406719479566108e+00 4.749080540321749311e+00 2.493593982000049181e+01 -1.117114693454743124e+00 -1.812406719479566108e+00 -1.117114693454743124e+00 7.520560089468541776e+01
-2.334425849724363644e+01 -7.976821743360751782e+00 -1.094293772643031737e+01 -7.976821743360751782e+00 3.136211080110514970e+00 -1.168653903488313439e+01 -1.094293772643031737e+01 -1.168653903488313439e+01 7.135686228176808754e+01
1.336323617086196514e+01 2.202200852928753338e+00 -7.381231731281040487e-02 2.202200852928753338e+00 2.155847930425759884e+01 -1.216123687693740463e+00 -7.381231731281040487e-02 -1.216123687693740463e+00 1.716444349945482628e+01
-1.057080136492594802e+00 4.476627884164496911e-05 3.077681611294834385e-05 4.476627884164496911e-05 -1.057136094343322119e+00 1.678735389092994457e-05 3.077681611294835062e-05 1.678735389092994457e-05 -1.057158477482899928e+00
-2.495283345804504904e+01 -1.740613919402618004e+00 -1.253095018374103020e+01 -1.740613919402618004e+00 3.974304054463946301e+01 -2.425964143467804845e+01 -1.253095018374103020e+01 -2.425964143467804845e+01 -4.336547353557975981e+01
3.335211408271993250e+00 1.114129606376622306e+01 -1.263434848370931540e+01 1.114129606376622306e+01 5.832066992431516184e+01 -2.329226850303001939e+01 -1.263434848370931540e+01 -2.329226850303001939e+01 2.652201442961465716e+01
-4.805629720370241387e+01 5.457057663397566039e+00 1.199614640163939150e+01 5.457057663397566039e+00 2.801136645477665610e+01 -2.706134258328680886e+01 1.199614640163939150e+01 -2.706134258328680886e+01 -2.188891430647995406e+01
-2.806524779176350037e+01 1.214377326696525117e+01 8.498688180254552194e+00 1.214377326696525117e+01 -2.022401385290663711e+01 5.653693741870498002e+00 8.498688180254552194e+00 5.653693741870498002e+00 -2.571626081450690648e+01
-2.840955785611327755e+01 -1.787214734835613328e+01 -1.050985515171547213e+01 -1.787214734835613328e+01 -2.104778621590450172e+01 -1.188756890695655244e+01 -1.050985515171547213e+01 -1.188756890695655244e+01 1.304271207500605811e+01
1.117657700159504586e+01 -1.124878991398467676e+01 -1.626552823745750231e+01 -1.124878991398467676e+01 -9.703988548458045926e+00 -7.090625799636764981e+00 -1.626552823745750231e+01 -7.090625799636764981e+00 -3.214866260548450327e+01
-2.643669945299442148e+01 -7.862094979566004227e+00 5.397693220333604991e+00 -7.862094979566004227e+00 1.092433568388434928e+01 -1.443310764384210243e+00 5.397693220333604991e+00 -1.443310764384210243e+00 -2.993193453042883689e+01
-4.984526861409938903e+01 -1.395119900123546941e+01 -2.397712962078475396e+00 -1.395119900123546941e+01 -9.430589246914712120e+00 -8.493403226057180788e+00 -2.397712962078475396e+00 -8.493403226057180788e+00 -5.762091520569730108e+01
-5.253741779657189248e+00 1.649509762412859004e+01 -2.555930001554032049e+00 1.649509762412859004e+01 2.509713830538401780e+01 5.364650299976352343e+00 -2.555930001554032049e+00 5.364650299976352343e+00 5.849142108534778117e+01
2.248840797226042554e+01 2.017680992985272326e+01 9.027014059732206164e+00 2.017680992985272326e+01 -5.117328754564159254e+00 -3.893884452625473003e+00 9.027014059732206164e+00 -3.893884452625473003e+00 -3.765314057035984519e+01
-2.243263734293388723e+01 -2.882671405095856474e-06 -5.765342794144712726e-06 -2.882671405095856898e-06 -2.243263446026234220e+01 -2.882671331338060830e-06 -5.765342794144711032e-06 -2.882671331338060406e-06 -2.243264022560499171e+01
-3.661284462064136136e+01 4.781104400654904829e+00 -3.807458054258100466e-01 4.781104400654904829e+00 -1.486560857794819057e+00 -1.068285269202751664e+01 -3.807458054258100466e-01 -1.068285269202751664e+01 -2.260072797459881500e+01
1.175811610870993285e+00 1.678417968944073024e+01 -1.313828388172028294e+00 1.678417968944073024e+01 -2.875030354040016434e+01 -5.948958926347747145e+00 -1.313828388172028294e+00 -5.948958926347747145e+00 1.806029009863389589e+01
-2.963823047146550493e+01 2.585106999823880702e+00 1.821413769249400072e-01 2.585106999823880702e+00 2.041501660726922651e+01 7.460636734195637665e+00 1.821413769249400072e-01 7.460636734195637665e+00 2.559920208176508893e+01
-4.351656989207673831e+01 -1.414936801781123243e+01 -3.844856122340149174e+00 -1.414936801781123243e+01 4.442657339436861363e+00 -2.217267302394947492e+01 -3.844856122340149174e+00 -2.217267302394947492e+01 -3.221874541905170197e+00
-4.176684937489282134e+01 -1.326755671502579936e+01 -1.506875114595860410e+01 -1.326755671502579936e+01 -5.969456913247440610e+01 2.037843552427349270e+00 -1.506875114595860410e+01 2.037843552427349270e+00 7.767820372455164879e+00
-3.787842714868685334e+01 -1.492946365093448868e+01 -9.108938743514476855e+00 -1.492946365093448868e+01 2.151221442020845132e+01 -1.931888093620986879e+01 -9.108938743514476855e+00 -1.931888093620986879e+01 -4.279094500903437392e+01
-2.249542318096748161e+01 -1.869227202132630694e+01 -1.016014712563641176e+01 -1.869227202132630694e+01 2.511972865594759696e+01 -1.084703647268406401e+00 -1.016014712563641176e+01 -1.084703647268406401e+00 -1.784304043692822006e+01
-5.431438686029652274e+01 8.040669406288401433e+00 -7.448697066252674581e+00 8.040669406288401433e+00 -7.856640227313093305e+00 -3.929496306610515521e+00 -7.448697066252674581e+00 -3.929496306610515521e+00 2.115232252067249163e+01
9.067041209723750939e+00 1.355851651930406021e+01 4.753956072699281776e+00 1.355851651930406021e+01 -2.331501057502684660e+01 1.012585705308126904e+01 4.753956072699281776e+00 1.012585705308126904e+01 8.672017926469013371e-01
-7.516895807089187542e+01 -2.000619029821741535e+01 -1.166062456278709547e+01 -2.000619029821741535e+01 -5.064373508981282868e+01 -1.369209254381650354e+01 -1.166062456278709547e+01 -1.369209254381650354e+01 -5.242523813665307841e+01
2.065274989247739157e+01 4.803522754044054692e-05 3.431087473905155335e-05 4.803522754044055369e-05 2.065270528832573405e+01 1.715543478032768111e-05 3.431087473905156013e-05 1.715543478032768450e-05 2.065267440853698488e+01
2.176174588052974102e+01 -2.075755398789956985e+01 -1.611453152394572541e+01 -2.075755398789956985e+01 5.203587953007473033e+01 -3.595771973001798738e+00 -1.611453152394572541e+01 -3.595771973001798738e+00 2.370916946536804204e+01
7.407209765611612795e+01 -1.728528201367816663e+01 -1.332780968647776731e+01 -1.728528201367816663e+01 3.520582407146514470e+01 1.540473855477750220e+01 -1.332780968647776731e+01 1.540473855477750220e+01 5.530856515786271643e+01
6.714525326689567919e+01 -1.910995060088568565e+01 -1.151358999312359188e+01 -1.910995060088568565e+01 3.667900099636885614e+01 1.078371902083126876e+01 -1.151358999312359188e+01 1.078371902083126876e+01 -2.243952982245488315e+01
-2.256475163858382160e+01 -9.823670555606621946e+00 -5.130940100363161172e+00 -9.823670555606621946e+00 1.759592169408405837e+01 -1.072039159057792368e+01 -5.130940100363161172e+00 -1.072039159057792368e+01 5.533887518944868411e+00
-1.327219771863426345e+01 -1.303267503474036637e+01 -5.337792229974800406e+00 -1.303267503474036637e+01 1.337375553105404080e+01 -1.098765389489951616e+01 -5.337792229974800406e+00 -1.098765389489951616e+01 3.937993414671073111e+01
3.492087005952637213e+01 2.676252818740859141e+01 2.044121418970102511e+01 2.676252818740859141e+01 -3.623022480882619467e-01 1.123466665036137790e+01 2.044121418970102511e+01 1.123466665036137790e+01 5.947880181714630510e+01
6.930108324793052077e+01 1.721294131288192020e+01 9.913728965455673503e+00 1.721294131288192020e+01 7.954494153155464176e+01 -1.162948263071493393e+01 9.913728965455673503e+00 -1.162948263071493393e+01 -1.435664280670457771e+01
-7.296017940722721917e+00 1.855550014938887315e+01 9.250154030020599549e+00 1.855550014938887315e+01 4.766168788950738389e+01 -8.951437010167099473e+00 9.250154030020599549e+00 -8.951437010167099473e+00 4.467224509554095135e+01
4.434879783037007250e+00 -1.043405245088467304e+01 -7.566833656628754845e+00 -1.043405245088467304e+01 1.026581232106663322e+01 -5.509631574910956786e+00 -7.566833656628754845e+00 -5.509631574910956786e+00 -2.932951259230438534e+00
-3.634985265870633420e+00 2.367583499433036476e+00 -5.735372835536393765e+00 2.367583499433036476e+00 2.494174145355775707e+01 -5.512187062578720820e+00 -5.735372835536393765e+00 -5.512187062578720820e+00 3.796257414104037764e+01
-1.420973211211989939e+00 -5.304170622837399473e-05 -3.536113658271298327e-05 -5.304170622837399473e-05 -1.420906025036893894e+00 -2.475279360177906911e-05 -3.536113658271298327e-05 -2.475279360177907249e-05 -1.420909561151486367e+00
-3.014034251481056970e+01 -7.769735846140850555e+00 -8.389074893817543455e+00 -7.769735846140850555e+00 -3.823870094303202194e+01 -4.400696517215209269e+00 -8.389074893817543455e+00 -4.400696517215209269e+00 -1.394508104154856554e+01
-2.816917540064600800e+01 -1.689470005903147154e+01 -9.427390168419828242e+00 -1.689470005903147154e+01 -7.117886180759873227e+00 2.581931221698710921e+00 -9.427390168419828242e+00 2.581931221698710921e+00 2.739175971402372767e+01
-4.140994874565915751e+01 -1.523370375555247414e+01 -5.977703475717790482e+00 -1.523370375555247414e+01 -2.615259018180898565e+00 -1.672437135863614444e+01 -5.977703475717790482e+00 -1.672437135863614444e+01 3.368469943004187783e+00
3.086833518092933559e+01 -3.218166620610642958e+00 -7.263230948382509711e-01 -3.218166620610642958e+00 2.576839139766086717e+01 -7.359659672731508451e+00 -7.263230948382509711e-01 -7.359659672731508451e+00 -3.806315547022182955e+01
2.505035653137586493e+01 -3.804567747738903716e+00 -4.289204342880076126e+00 -3.804567747738903716e+00 -2.815373134113800546e+01 1.254007411550713158e+01 -4.289204342880076126e+00 1.254007411550713158e+01 4.958049482495101756e+01
4.754491360393563326e+01 2.547798656476783918e+01 2.052031844792128013e+01 2.547798656476783918e+01 2.542738411967389212e+01 9.979756897955873285e+00 2.052031844792128013e+01 9.979756897955873285e+00 6.481370288453837247e+01
5.275595499065016725e+01 5.502594147403323532e+00 4.491960296084333670e+00 5.502594147403323532e+00 4.469818577256608449e+01 9.413814846741692222e+00 4.491960296084333670e+00 9.413814846741692222e+00 -3.373029324954488573e+01
-3.465386164023199456e+01 1.219564093765959534e+01 9.388555983165590035e+00 1.219564093765959534e+01 -2.365866165783921460e+01 -1.825304229690212443e+00 9.388555983165590035e+00 -1.825304229690212443e+00 4.291417849312050947e+01
-3.958923729559538884e+01 4.391409706572215299e+00 6.264846821794481713e+00 4.391409706572215299e+00 -3.309394072328839087e+00 -1.078349177929823455e+01 6.264846821794481713e+00 -1.078349177929823455e+01 3.082428932145577605e+01
2.110175239251676516e+01 9.688547356471394423e+00 -6.271089719566683707e-01 9.688547356471394423e+00 2.485867081371731047e+01 1.751120169838806140e+00 -6.271089719566683707e-01 1.751120169838806140e+00 3.618843345052034977e+01
-2.186179956948859626e+01 -6.193544588863697596e-05 -4.371913703563191895e-05 -6.193544588863697596e-05 -2.186171941771833360e+01 -2.550282732331992955e-05 -4.371913703563191895e-05 -2.550282732331993294e-05 -2.186171941771931415e+01
-2.258390351318241507e+00 -4.056153619066294347e+00 -4.761474581539909323e+00 -4.056153619066294347e+00 -1.672443034771092485e+01 7.185135265675757665e+00 -4.761474581539909323e+00 7.185135265675757665e+00 3.411051064143799039e+01
-2.808534989537098880e+01 7.230905399887022966e+00 9.684297987217435733e+00 7.230905399887022966e+00 -3.979577162413525104e-01 -1.103641672641342986e+01 9.684297987217435733e+00 -1.103641672641342986e+01 -8.184113829105008620e+00
8.805400468943011205e+00 -3.795346272662843301e+00 -2.093111338942929223e+00 -3.795346272662843301e+00 -2.679107655872476457e+01 7.064363670076318158e+00 -2.093111338942929223e+00 7.064363670076318158e+00 -2.916136833490475411e+01
-2.680429589540251101e+01 4.413313297401366242e+00 -6.221834687646806472e+00 4.413313297401366242e+00 -4.274233941903013090e+01 2.545880869055165086e+00 -6.221834687646806472e+00 2.545880869055165086e+00 -6.373568046474838156e-02
-6.143751400549004416e+01 -1.183369732376116756e+00 -4.085254730779268151e+00 -1.183369732376116756e+00 -6.071611650012567907e+01 -9.785464948571062749e+00 -4.085254730779268151e+00 -9.785464948571062749e+00 -4.981224214925779137e+01
-2.339350969886371345e+01 -5.265835549570387464e+00 -9.540061350205803592e+00 -5.265835549570387464e+00 1.012367133860098356e+01 -1.011326853603021370e+01 -9.540061350205803592e+00 -1.011326853603021370e+01 5.304961291345594354e+00
-5.789106167413276438e+01 -1.420415874011031754e+01 -7.298708071983376344e-01 -1.420415874011031754e+01 -4.943157899946889700e+01 6.412563148727888240e+00 -7.298708071983376344e-01 6.412563148727888240e+00 -5.560441041698078379e+01
-2.692151672022187725e+01 -1.325016238121468426e+01 -3.094030583487001440e+00 -1.325016238121468426e+01 -3.210987326121247065e+01 3.340888598458773284e+00 -3.094030583487001440e+00 3.340888598458773284e+00 -3.258114496826204487e+01
-3.534458445118057313e+01 8.954591719145016171e+00 -2.149505978518199356e+00 8.954591719145016171e+00 -5.869602741066267981e+01 9.329565249728053900e+00 -2.149505978518199356e+00 9.329565249728053900e+00 -2.655879063565568643e+01
-5.998131906694474935e+01 1.001998159555522427e+01 -2.773761094072751399e-01 1.001998159555522427e+01 -3.941128880359858044e+01 -6.880595941026181883e-01 -2.773761094072751399e-01 -6.880595941026181883e-01 -4.329674983451228343e+01
