-4.172943109400000026e+02
-4.172489099399999759e+02
-4.173134968800000024e+02
-4.172095120600000087e+02
-4.172835039799999777e+02
-4.172382819100000120e+02
-4.172689126999999871e+02
-4.171129485899999736e+02
-4.172240996699999869e+02
-4.171892443300000082e+02
