-3.079700000000000215e-01 2.116850000000000120e-01 8.283300000000000385e-02 -9.212900000000000256e-02 5.953699999999999964e-02 -1.349059999999999981e-01 -1.105030000000000040e-01 1.529600000000000126e-01 2.057130000000000070e-01 -2.216140000000000054e-01 1.013570000000000026e-01 9.602800000000000225e-02 -2.520020000000000038e-01 1.786119999999999930e-01 6.322200000000000042e-02 -2.181929999999999981e-01 -7.367000000000000284e-03 1.714579999999999993e-01 -3.535289999999999822e-01 1.849590000000000123e-01 9.675499999999999379e-02 -2.193579999999999974e-01 9.008700000000000041e-02 -4.911999999999999700e-02 -1.674769999999999870e-01 -4.776699999999999696e-02 -6.183000000000000301e-02 -1.225170000000000009e-01 6.820600000000000274e-02 7.251900000000000013e-02 4.805899999999999755e-02 1.282609999999999861e-01 -7.874299999999999355e-02 3.503789999999999960e-01 -1.264540000000000108e-01 6.019200000000000245e-02 -1.691199999999999995e-02 -3.492329999999999934e+00 -2.454556000000000182e+00 3.032509999999999817e+00 -1.648514999999999953e+00 -1.153864000000000001e+00 -2.547100000000000058e-02 -4.791000000000000120e-03 3.621852000000000071e+00 2.971356000000000108e+00 -1.667100999999999944e+00 -1.129796999999999940e+00 2.948888000000000176e+00 -1.762056000000000067e+00 -1.190488999999999908e+00 2.924906000000000006e+00 -1.738132000000000010e+00 -1.244023000000000101e+00 3.009659999999999780e+00 1.740715000000000012e+00 -2.490813000000000166e+00 2.918842000000000159e+00 -1.734485999999999972e+00 -1.174072999999999922e+00 3.030648999999999926e+00 -1.667186000000000057e+00 -1.222782999999999953e+00 -3.030311999999999895e+00 1.735441000000000011e+00 1.273192000000000101e+00 1.328599999999999920e-02 -8.685999999999999277e-03 -3.901733999999999813e+00 1.021350000000000036e-01 3.472735000000000127e+00 2.465440000000000076e+00 -3.041586999999999819e+00 1.775087999999999999e+00 1.286426999999999987e+00 7.158699999999999786e-02 -4.700800000000000117e-02 -3.113399999999999848e-02 -3.009869000000000128e+00 1.727727000000000013e+00 1.188793999999999906e+00 -2.978167000000000009e+00 1.723309999999999897e+00 1.226679999999999993e+00 -3.005071000000000048e+00 1.742002999999999968e+00 1.209314000000000000e+00 8.166700000000000348e-02 -3.641267000000000031e+00 1.253384999999999971e+00 2.976758999999999933e+00 -1.794788000000000050e+00 2.545548000000000144e+00 -3.185067000000000093e+00 1.817787999999999959e+00 -2.407211999999999907e+00 -7.703100000000000225e-02 1.047789999999999971e-01 2.936899999999999927e-02 -1.216079999999999939e-01 5.972600000000000131e-02 3.698026000000000035e+00 -3.051604000000000205e+00 -1.694587000000000065e+00 -1.180714999999999959e+00 -7.141300000000000425e-02 3.490686000000000178e+00 -1.243524999999999991e+00 -5.752399999999999874e-02 9.141499999999999626e-02 9.716500000000000137e-02 -7.772099999999999842e-02 3.603568000000000104e+00 2.563429999999999875e+00 -3.128947999999999841e+00 -1.695924999999999905e+00 -1.201934999999999976e+00 -1.280640000000000112e-01 1.771780000000000022e-01 2.740799999999999903e-01 1.711640000000000106e-01 1.838090000000000002e-01 1.785980000000000067e-01 -2.097779999999999923e-01 3.054999999999999990e-03 -2.883600000000000052e-02 -8.812100000000000488e-02 -4.758699999999999736e-02 1.781200000000000006e-01 -2.740670000000000051e-01 7.364700000000000413e-02 -7.481100000000000250e-02 5.403899999999999676e-02 -2.298659999999999870e-01 6.185000000000000393e-03 -1.627540000000000098e-01 2.149339999999999862e-01 3.797699999999999687e-02 3.360670000000000046e-01 -2.944579999999999975e-01 -9.998700000000000643e-02 3.141059999999999963e-01 -4.056839999999999891e-01 -3.531369999999999787e-01 4.785150000000000237e-01 -8.149999999999999259e-03 -1.049800000000000039e-02 3.472609999999999864e-01 -1.654799999999999882e-01 -2.769599999999999840e-01 6.786870000000000402e-01 4.108300000000000146e-02 -1.246290000000000037e-01 3.975369999999999737e-01 -4.271690000000000209e-01 -3.073159999999999781e-01 2.595930000000000182e-01 -3.577890000000000237e-01 -4.024590000000000112e-01 2.887270000000000114e-01 -2.397219999999999906e-01 4.758199999999999930e-02
-3.132780000000000009e-01 1.517219999999999958e-01 1.325909999999999866e-01 -1.963330000000000075e-01 1.284359999999999946e-01 -5.631300000000000194e-02 -1.720049999999999912e-01 3.249980000000000091e-01 1.301960000000000062e-01 -2.855489999999999973e-01 -1.231610000000000066e-01 1.370490000000000042e-01 -6.574499999999999789e-02 -1.284770000000000079e-01 2.691239999999999744e-01 -2.641549999999999732e-01 -2.335200000000000053e-01 1.588350000000000040e-01 -5.636000000000000384e-03 3.140539999999999998e-01 -2.455000000000000151e-03 1.213710000000000067e-01 -9.814199999999999313e-02 1.721229999999999982e-01 -9.998700000000000643e-02 -1.219340000000000007e-01 -8.331900000000000417e-02 -1.307389999999999941e-01 8.938100000000000211e-02 -9.191599999999999770e-02 2.611299999999999732e-01 -8.788999999999999937e-03 -2.747140000000000137e-01 3.593629999999999880e-01 -2.697760000000000158e-01 1.906000000000000055e-02 2.956447999999999965e+00 -1.782820000000000071e+00 -1.190015999999999963e+00 -2.247100000000000139e-02 3.367541000000000118e+00 -1.148050000000000015e+00 4.553200000000000303e-02 -8.862699999999999745e-02 -5.858000000000000360e-03 3.017120999999999942e+00 -1.725805999999999951e+00 2.468894999999999840e+00 2.536599999999999966e-02 -3.515703999999999940e+00 -2.426324999999999843e+00 3.006838999999999817e+00 1.753624000000000072e+00 -2.510634000000000032e+00 3.003718999999999806e+00 -1.622265000000000068e+00 -1.198579000000000061e+00 3.050200999999999940e+00 -1.695694000000000035e+00 2.478797000000000139e+00 7.621000000000000170e-03 -3.461176000000000030e+00 -2.575518999999999892e+00 -2.988716000000000150e+00 1.696525000000000061e+00 -2.489263999999999921e+00 3.124162999999999801e+00 1.724172999999999956e+00 -2.512769000000000030e+00 8.201999999999999222e-03 3.471950999999999787e+00 2.453800999999999899e+00 -2.966190999999999800e+00 1.780548999999999937e+00 1.245867999999999975e+00 -3.054095999999999922e+00 1.768874000000000057e+00 1.196995000000000031e+00 -3.015597999999999779e+00 1.781949999999999923e+00 1.202809999999999935e+00 2.649800000000000072e-02 -1.366599999999999933e-02 -8.272200000000000386e-02 4.376100000000000129e-02 -3.679750999999999994e+00 1.264841000000000104e+00 -3.007029000000000174e+00 -1.813754000000000088e+00 2.469498000000000193e+00 -1.640099999999999891e-02 1.723299999999999832e-02 3.749582999999999888e+00 -3.065639000000000003e+00 -1.762704999999999966e+00 -1.180604999999999905e+00 -1.411250000000000004e-01 -5.498900000000000315e-02 7.427999999999999707e-03 -8.537899999999999656e-02 3.522622000000000142e+00 -1.163670999999999900e+00 3.052271000000000178e+00 1.833288999999999946e+00 -2.462110000000000021e+00 -3.948600000000000027e-02 1.479810000000000014e-01 -2.644300000000000123e-02 -3.162393999999999927e+00 -1.688150000000000039e+00 2.544766999999999779e+00 -3.141842000000000024e+00 1.846279999999999921e+00 -2.489654999999999951e+00 3.058625999999999845e+00 -1.736253000000000046e+00 2.497151999999999816e+00 -1.495569999999999955e-01 3.050510000000000166e-01 -2.431069999999999898e-01 -2.391409999999999925e-01 3.603330000000000144e-01 1.627190000000000025e-01 -3.382399999999999990e-02 1.985079999999999900e-01 -3.965999999999999907e-03 -5.826499999999999735e-02 1.107970000000000066e-01 -2.913250000000000006e-01 1.895330000000000070e-01 5.124299999999999689e-02 1.102140000000000064e-01 -1.910850000000000048e-01 -3.672170000000000156e-01 2.186130000000000018e-01 -2.768550000000000177e-01 8.319100000000000106e-02 -3.157000000000000084e-03 2.106349999999999889e-01 1.931229999999999891e-01 1.660989999999999966e-01 4.114789999999999837e-01 8.875500000000000056e-02 -4.063400000000000345e-02 7.709900000000000087e-02 -1.474550000000000027e-01 -1.412819999999999909e-01 2.368369999999999920e-01 -5.011710000000000331e-01 1.467469999999999886e-01 1.942669999999999952e-01 -3.714549999999999796e-01 -3.168639999999999790e-01 3.866600000000000037e-01 -2.334779999999999911e-01 -4.900999999999999801e-02 2.462890000000000079e-01 -2.166699999999999876e-02 -1.604289999999999883e-01 6.748700000000000532e-02 1.554159999999999986e-01 -1.830910000000000037e-01
-1.567870000000000097e-01 2.157119999999999871e-01 -3.770300000000000040e-02 -3.052369999999999806e-01 1.448780000000000068e-01 1.490269999999999928e-01 -3.095350000000000046e-01 9.868100000000000482e-02 2.064400000000000124e-01 -4.531609999999999805e-01 1.286970000000000058e-01 6.738500000000000045e-02 -3.733620000000000272e-01 3.535100000000000048e-02 1.745160000000000045e-01 -2.835719999999999907e-01 -6.070099999999999801e-02 3.933550000000000102e-01 -2.360899999999999943e-01 1.547270000000000034e-01 -1.774110000000000131e-01 1.881190000000000084e-01 -4.212799999999999878e-02 -3.024049999999999794e-01 2.696009999999999796e-01 1.410900000000000001e-02 3.401699999999999863e-02 1.436230000000000007e-01 -2.461309999999999887e-01 3.835899999999999727e-02 3.812800000000000078e-01 9.659399999999999931e-02 -1.324839999999999907e-01 4.105199999999999821e-02 -1.864689999999999959e-01 -3.062960000000000127e-01 5.194000000000000006e-02 -3.468484999999999818e+00 -2.401148000000000060e+00 3.237299999999999900e-02 3.372908999999999935e+00 -1.333253000000000021e+00 3.311800000000000160e-02 3.445162999999999975e+00 2.465418000000000109e+00 3.106145999999999852e+00 1.785944999999999894e+00 1.347865000000000091e+00 -2.547599999999999865e-02 -3.629300999999999888e+00 1.239618000000000109e+00 2.667900000000000132e-02 -3.449314999999999909e+00 -2.466108999999999885e+00 4.080000000000000293e-03 -2.865200000000000038e-02 -3.774318000000000062e+00 3.076477999999999824e+00 -1.709408999999999956e+00 -1.260537000000000019e+00 3.035365999999999786e+00 -1.829415999999999931e+00 2.473165999999999976e+00 1.654000000000000088e-03 -3.431000000000000022e-03 -3.747597999999999985e+00 2.982299999999999882e-02 3.405788999999999955e+00 -1.337450000000000028e+00 6.305399999999999894e-02 3.460322999999999816e+00 2.469421000000000088e+00 -3.060294999999999987e+00 1.793012000000000050e+00 1.285077999999999943e+00 -3.041509000000000018e+00 1.770420000000000105e+00 1.190058000000000060e+00 -3.092332999999999998e+00 1.841210000000000013e+00 1.258391999999999955e+00 -3.036926999999999932e+00 1.766437000000000035e+00 1.260964999999999892e+00 -3.080137000000000125e+00 -1.809652000000000038e+00 2.480459999999999887e+00 -2.981953999999999994e+00 -1.874846999999999930e+00 2.475535999999999959e+00 -5.068299999999999889e-02 -3.465545999999999793e+00 -2.388980999999999799e+00 -8.537799999999999556e-02 1.077130000000000032e-01 -1.039499999999999973e-02 -1.049770000000000009e-01 5.261000000000000051e-03 3.671682000000000112e+00 -7.710699999999999499e-02 1.459390000000000132e-01 1.233970000000000067e-01 2.875135999999999914e+00 -1.657936999999999994e+00 -1.265395999999999965e+00 2.928282999999999969e+00 -1.601968000000000059e+00 -1.168825999999999921e+00 2.974530999999999814e+00 1.775179999999999980e+00 -2.452783999999999853e+00 -1.491089999999999915e-01 2.447999999999999829e-02 -5.080099999999999894e-02 -7.516799999999999871e-02 4.846500000000000113e-02 1.104730000000000018e-01 -1.699700000000000100e-01 4.226869999999999794e-01 6.105300000000000310e-02 -2.988299999999999845e-01 5.300650000000000084e-01 2.611780000000000213e-01 2.429620000000000113e-01 -1.697710000000000052e-01 -2.556789999999999896e-01 1.932349999999999901e-01 -2.308649999999999869e-01 -1.403210000000000013e-01 3.263289999999999802e-01 -2.422020000000000006e-01 9.942099999999999549e-02 1.414269999999999972e-01 -1.510579999999999978e-01 -2.925809999999999800e-01 4.461319999999999730e-01 -1.475970000000000060e-01 3.326400000000000190e-02 2.252280000000000115e-01 -2.717220000000000191e-01 -2.938599999999999893e-02 1.250999999999999890e-01 -8.204300000000000481e-02 -5.495099999999999985e-02 1.534760000000000013e-01 1.291910000000000003e-01 2.377180000000000126e-01 -8.498100000000000098e-02 -2.482830000000000037e-01 -2.637749999999999817e-01 8.767600000000000393e-02 -2.842799999999999841e-02 -6.632399999999999407e-02 1.068199999999999983e-01 -2.906039999999999734e-01 -5.094200000000000117e-02 5.267999999999999766e-02 -1.274399999999999977e-01 -1.428260000000000085e-01 1.691749999999999921e-01 3.344599999999999795e-01 3.034149999999999903e-01
1.278700000000000114e-01 2.160769999999999913e-01 8.564000000000000432e-03 -1.450889999999999957e-01 1.727480000000000127e-01 -1.555630000000000068e-01 -4.276699999999999946e-02 1.359710000000000085e-01 2.745000000000000044e-03 -2.914229999999999876e-01 -2.717180000000000151e-01 2.745330000000000270e-01 -4.500080000000000191e-01 -2.501490000000000102e-01 9.947699999999999598e-02 -2.570819999999999772e-01 -1.444769999999999943e-01 4.732270000000000088e-01 -3.036949999999999927e-01 3.468999999999999861e-03 1.563099999999999906e-02 2.937899999999999887e-02 1.886059999999999959e-01 -2.213900000000000035e-01 5.276999999999999746e-02 1.544679999999999942e-01 4.093600000000000017e-02 2.934149999999999814e-01 9.824099999999999500e-02 -1.634649999999999992e-01 4.057660000000000156e-01 -7.932999999999999774e-02 1.228399999999999978e-02 1.696729999999999905e-01 -3.245390000000000219e-01 -2.399529999999999996e-01 4.479999999999999954e-02 -6.527700000000000169e-02 9.502199999999999536e-02 1.109100000000000016e-02 3.378585000000000171e+00 -1.258267999999999942e+00 -1.055599999999999941e-02 -8.111799999999999566e-02 -4.263000000000000296e-03 2.992526999999999937e+00 1.740701000000000054e+00 1.323919999999999986e+00 -5.809099999999999681e-02 -2.800400000000000111e-02 -3.752781000000000144e+00 2.993275999999999826e+00 -1.702282999999999991e+00 -1.196639000000000008e+00 -2.257500000000000132e-02 -3.519318000000000168e+00 1.249362000000000084e+00 1.455099999999999970e-02 -3.470476000000000116e+00 -2.492967999999999851e+00 3.038041000000000214e+00 -1.731783000000000072e+00 2.468512000000000040e+00 3.020337000000000049e+00 1.684771000000000019e+00 -2.422085000000000043e+00 1.450399999999999953e-02 3.392167999999999850e+00 -1.227559999999999985e+00 3.046775999999999929e+00 1.725662000000000029e+00 -2.474949000000000066e+00 9.045699999999999574e-02 -1.098700000000000024e-02 -4.420199999999999824e-02 -3.018888000000000016e+00 1.805704999999999893e+00 1.269884000000000013e+00 -3.081151999999999891e+00 1.794283000000000072e+00 1.195222999999999924e+00 -2.983636000000000177e+00 -1.778459000000000012e+00 2.487337000000000131e+00 -3.074638999999999900e+00 -1.811185999999999963e+00 2.499661999999999829e+00 -2.996515000000000040e+00 -1.777617000000000003e+00 2.453734999999999999e+00 -3.062472999999999779e+00 1.754205999999999932e+00 -2.489708999999999950e+00 1.692899999999999960e-02 9.745999999999999455e-03 3.682043999999999873e+00 -3.063817999999999930e+00 -1.756629999999999914e+00 2.481605000000000061e+00 -2.983903999999999890e+00 -1.664662000000000086e+00 -1.204318000000000000e+00 2.929248999999999992e+00 -1.614586000000000077e+00 -1.278721999999999914e+00 -2.395800000000000013e-02 9.078799999999999371e-02 3.615385999999999989e+00 3.012179999999999858e+00 1.788583000000000034e+00 -2.415881000000000167e+00 2.931011999999999951e+00 -1.739732999999999974e+00 -1.238102999999999954e+00 -6.038199999999999817e-02 3.489787999999999890e+00 -1.172776999999999958e+00 -5.075999999999999956e-02 2.780079999999999774e-01 -8.900900000000000478e-02 8.234000000000000000e-03 6.007759999999999767e-01 -9.911000000000000365e-02 -2.270109999999999906e-01 3.730649999999999800e-01 -9.274699999999999611e-02 -6.331599999999999728e-02 -1.932550000000000101e-01 8.042000000000000537e-02 -4.137000000000000052e-03 -9.695900000000000352e-02 2.410619999999999985e-01 -1.401509999999999978e-01 -7.279599999999999960e-02 -2.056250000000000022e-01 4.427039999999999864e-01 -2.661459999999999937e-01 -4.002900000000000208e-02 9.610799999999999899e-02 -1.392279999999999907e-01 1.738020000000000120e-01 -1.226200000000000033e-02 2.389080000000000092e-01 -5.048999999999999669e-03 6.646299999999999430e-02 -2.660750000000000060e-01 -1.746719999999999939e-01 1.878900000000000015e-01 -1.942230000000000067e-01 1.260479999999999934e-01 1.649799999999999878e-01 -2.694599999999999773e-01 5.982999999999999603e-03 5.795999999999999763e-02 2.838999999999999944e-03 -2.516109999999999736e-01 -2.487999999999999934e-02 7.654299999999999993e-02 -1.726600000000000079e-01 1.942270000000000107e-01 1.257709999999999939e-01 2.077019999999999977e-01
8.416999999999999135e-03 3.031249999999999778e-01 9.194299999999999695e-02 -1.773139999999999994e-01 7.138799999999999313e-02 -1.261190000000000089e-01 -1.554899999999999893e-01 1.589909999999999934e-01 5.402599999999999764e-02 -3.588199999999999723e-01 -3.168759999999999910e-01 1.327079999999999926e-01 -8.159399999999999986e-02 -3.265770000000000062e-01 1.146770000000000012e-01 -1.150619999999999976e-01 -1.695399999999999963e-01 3.867970000000000019e-01 2.232599999999999862e-02 -1.227909999999999974e-01 1.428830000000000100e-01 6.090299999999999880e-02 -6.306900000000000006e-02 -1.057600000000000068e-01 2.105599999999999833e-02 9.819400000000000350e-02 9.760399999999999632e-02 -2.853269999999999973e-01 5.376899999999999735e-02 -1.675659999999999927e-01 3.149689999999999990e-01 1.942029999999999867e-01 -2.528810000000000224e-01 3.505909999999999860e-01 -1.785029999999999950e-01 4.089500000000000079e-02 4.579799999999999843e-02 -4.717600000000000265e-02 1.529830000000000079e-01 -8.584899999999999476e-02 3.367652000000000090e+00 -1.228917000000000037e+00 -3.529499999999999998e-02 -9.869300000000000295e-02 -2.997800000000000117e-02 2.994450000000000056e+00 1.714541000000000093e+00 1.301481000000000110e+00 -3.185999999999999943e-02 -3.517240000000000144e+00 -2.430511000000000088e+00 2.970683000000000185e+00 -1.663326000000000082e+00 -1.243293999999999899e+00 -1.199000000000000066e-02 -3.407375000000000043e+00 -2.420224000000000153e+00 3.038520000000000110e+00 -1.608783000000000074e+00 -1.229773999999999923e+00 2.984626000000000001e+00 -1.741060999999999970e+00 2.411267000000000049e+00 3.028808999999999862e+00 1.685845999999999956e+00 -2.450664999999999871e+00 3.039082000000000061e+00 1.681756000000000029e+00 -2.517347000000000001e+00 7.481100000000000250e-02 3.397387999999999852e+00 -1.235697000000000045e+00 -2.970382999999999996e+00 1.765206000000000053e+00 1.197144999999999904e+00 -3.037589999999999790e+00 1.830758000000000107e+00 1.234396999999999966e+00 -3.042638000000000176e+00 1.782527999999999890e+00 1.207988999999999979e+00 5.735200000000000020e-02 -3.597932000000000130e+00 1.280386999999999942e+00 -3.480000000000000020e-04 -3.663508000000000209e+00 1.251017000000000046e+00 -2.962336000000000080e+00 -1.847879000000000049e+00 2.419229000000000074e+00 -3.069995000000000029e+00 -1.791771000000000003e+00 2.524827000000000155e+00 -2.968611000000000111e+00 -1.763873000000000024e+00 -1.207818000000000058e+00 -5.721400000000000097e-02 -2.653300000000000103e-02 3.645525000000000126e+00 2.823099999999999915e-02 3.528906000000000098e+00 -1.162090000000000067e+00 3.056979000000000113e+00 1.816451000000000038e+00 -2.509647999999999879e+00 -3.577500000000000124e-02 6.887500000000000566e-02 -9.362399999999999889e-02 -1.116759999999999975e-01 5.320400000000000129e-02 1.759700000000000153e-02 -3.143969999999999931e+00 1.801301999999999959e+00 -2.472977000000000203e+00 -1.691900000000000001e-02 5.917300000000000337e-02 3.655676999999999843e+00 -2.630000000000000046e-02 3.800850000000000062e-01 -2.282299999999999884e-01 2.430360000000000020e-01 4.240439999999999765e-01 -2.620990000000000264e-01 -1.451800000000000035e-01 3.864509999999999890e-01 6.172699999999999715e-02 -2.495809999999999973e-01 1.983320000000000083e-01 -2.466199999999999989e-02 -1.262790000000000024e-01 1.185699999999999948e-01 -3.155160000000000187e-01 2.125249999999999917e-01 1.635780000000000012e-01 2.710190000000000099e-01 -3.024330000000000074e-01 -1.872929999999999873e-01 3.335529999999999884e-01 -1.745899999999999952e-01 1.564480000000000037e-01 3.086340000000000194e-01 1.949899999999999967e-01 6.134499999999999675e-02 -1.255870000000000042e-01 1.032509999999999956e-01 -3.159440000000000026e-01 -2.270799999999999902e-02 1.024609999999999965e-01 -4.088519999999999932e-01 -4.909499999999999975e-01 3.979369999999999852e-01 -3.809660000000000268e-01 2.620640000000000192e-01 3.351400000000000212e-02 -2.742769999999999930e-01 -1.862959999999999894e-01 3.868200000000000111e-02 -2.917399999999999854e-02 -4.087799999999999767e-01 3.564200000000000146e-01 2.269039999999999946e-01 3.516690000000000094e-01
-8.460399999999999865e-02 3.431200000000000222e-02 3.935009999999999897e-01 -4.304709999999999925e-01 3.018629999999999924e-01 4.150000000000000043e-03 -2.460160000000000124e-01 3.664699999999999902e-02 -6.558700000000000641e-02 -7.485500000000000487e-02 -4.708299999999999985e-02 3.783569999999999989e-01 -2.978259999999999796e-01 -1.567260000000000042e-01 4.792600000000000332e-02 -2.275679999999999925e-01 3.819810000000000150e-01 -1.060470000000000024e-01 -1.538740000000000108e-01 3.189179999999999793e-01 2.125700000000000159e-02 1.015889999999999987e-01 -1.609690000000000010e-01 2.725899999999999851e-02 1.648099999999999912e-02 -1.337599999999999900e-01 9.483700000000000463e-02 4.104979999999999740e-01 -7.197599999999999831e-02 -8.269200000000000161e-02 2.441119999999999957e-01 -4.046500000000000097e-01 -3.051200000000000093e-02 1.492189999999999905e-01 -2.472779999999999978e-01 -1.971799999999999942e-02 4.565199999999999814e-02 -8.116500000000000103e-02 -7.163000000000000096e-03 3.037262000000000128e+00 1.681032000000000082e+00 -2.443224999999999980e+00 2.999568000000000012e+00 -1.803128000000000064e+00 -1.160082000000000058e+00 2.969745000000000079e+00 -1.721543000000000045e+00 2.397895999999999805e+00 -2.929899999999999866e-02 1.481799999999999957e-02 -3.707241999999999926e+00 3.108455999999999886e+00 1.806675999999999949e+00 -2.469977999999999785e+00 3.081644999999999968e+00 -1.659313999999999956e+00 2.446044999999999803e+00 -1.632799999999999876e-02 -3.538581000000000198e+00 1.271398000000000028e+00 -2.918155000000000054e+00 -1.786234000000000099e+00 -1.271768999999999927e+00 7.876500000000000168e-02 3.468634999999999913e+00 2.499905000000000044e+00 -3.029713999999999796e+00 1.671226000000000100e+00 1.298305000000000042e+00 -3.073385000000000034e+00 1.724048000000000025e+00 -2.552300999999999931e+00 -3.002108999999999916e+00 1.731525999999999899e+00 1.139537000000000022e+00 -2.981142000000000181e+00 1.788091000000000097e+00 1.293806000000000012e+00 1.656600000000000086e-02 -3.619311999999999863e+00 1.216773000000000104e+00 1.678999999999999937e-03 -3.632988999999999802e+00 1.253948000000000063e+00 -3.063146000000000146e+00 1.735807000000000100e+00 -2.473575999999999997e+00 1.747000000000000072e-03 3.537992000000000026e+00 2.505520000000000191e+00 -1.115030000000000049e-01 -1.764999999999999902e-02 5.628099999999999770e-02 -1.068339999999999984e-01 -7.322000000000000383e-03 1.256799999999999862e-01 -6.416499999999999981e-02 3.397978000000000165e+00 -1.177732000000000001e+00 -4.761300000000000254e-02 3.547013999999999889e+00 -1.210007999999999972e+00 2.999225000000000030e+00 -1.723773999999999917e+00 2.515400000000000080e+00 -3.078488999999999809e+00 -1.629807999999999923e+00 -1.203426000000000107e+00 -3.084411999999999932e+00 -1.716126999999999958e+00 -1.163138000000000005e+00 2.911789000000000183e+00 -1.695681999999999912e+00 -1.191947000000000090e+00 3.004290999999999823e+00 -1.802281000000000022e+00 2.536284000000000205e+00 -4.350430000000000130e-01 1.905030000000000057e-01 6.111899999999999972e-02 -3.016699999999999937e-01 3.705510000000000193e-01 1.494429999999999925e-01 -1.651219999999999910e-01 1.739699999999999927e-02 -3.445100000000000245e-02 3.489300000000000040e-02 -1.113470000000000015e-01 1.120900000000000021e-02 1.477410000000000112e-01 -1.447789999999999910e-01 -2.521880000000000233e-01 2.295870000000000133e-01 -2.315280000000000116e-01 3.414099999999999774e-02 -6.903000000000000282e-03 2.819860000000000144e-01 6.968000000000000235e-03 2.889700000000000046e-01 1.991899999999999921e-02 -1.871839999999999893e-01 1.288779999999999926e-01 2.750400000000000067e-01 -2.818339999999999734e-01 3.177499999999999769e-01 -1.933700000000000002e-02 5.833699999999999997e-02 9.472800000000000664e-02 -1.113750000000000018e-01 -3.911490000000000244e-01 2.448399999999999882e-02 -3.765609999999999791e-01 1.129290000000000016e-01 3.536569999999999991e-01 3.310099999999999848e-02 6.705500000000000349e-02 6.929000000000000437e-02 1.605499999999999983e-01 -2.607610000000000205e-01 1.619819999999999871e-01 1.246680000000000010e-01 -2.815579999999999750e-01
-1.397990000000000066e-01 6.953600000000000059e-02 5.818799999999999667e-02 -3.174089999999999967e-01 1.197570000000000023e-01 -5.392899999999999777e-02 -6.237100000000000283e-02 3.910899999999999793e-02 2.205330000000000068e-01 -7.657400000000000317e-02 -3.057880000000000043e-01 4.690500000000000225e-02 -2.767999999999999974e-02 -1.376699999999999868e-01 -4.773899999999999672e-02 -2.412699999999999914e-02 2.176569999999999894e-01 -2.154719999999999969e-01 -7.287399999999999434e-02 1.992029999999999912e-01 3.560900000000000176e-02 -1.878499999999999961e-02 -3.183400000000000118e-01 1.082160000000000066e-01 -9.322700000000000431e-02 -1.550660000000000094e-01 9.715200000000000224e-02 -2.392289999999999972e-01 -1.879659999999999942e-01 2.213150000000000117e-01 2.577510000000000079e-01 1.041659999999999947e-01 -1.940729999999999955e-01 8.226700000000000679e-02 -3.780240000000000267e-01 -4.891899999999999721e-02 -1.380999999999999936e-02 3.408703000000000038e+00 -1.138538999999999968e+00 2.922715999999999870e+00 -1.825952000000000019e+00 -1.220024999999999915e+00 -4.800999999999999712e-03 -9.515500000000000347e-02 4.837500000000000133e-02 -5.033000000000000147e-03 2.192099999999999951e-02 -3.813464000000000187e+00 2.925546999999999898e+00 -1.601645999999999903e+00 -1.226556999999999897e+00 3.062631999999999799e+00 -1.667326000000000086e+00 2.482384999999999842e+00 -3.759000000000000188e-03 -3.489517000000000202e+00 -2.491601000000000177e+00 3.007986999999999966e+00 -1.670900000000000052e+00 -1.258993999999999946e+00 -5.916899999999999937e-02 3.762900000000000272e-02 3.611422999999999828e+00 3.873299999999999660e-02 3.455515999999999810e+00 2.508741999999999805e+00 -2.991521999999999792e+00 1.681022999999999934e+00 -2.532799999999999940e+00 8.159700000000000286e-02 3.296518999999999977e+00 -1.241004999999999914e+00 -3.044262999999999941e+00 1.817436000000000051e+00 1.261195999999999984e+00 -3.069967000000000112e+00 1.802658000000000094e+00 1.268947999999999965e+00 4.480300000000000255e-02 -3.593576999999999799e+00 1.202825999999999951e+00 4.413000000000000256e-03 -3.657661000000000051e+00 1.341531999999999947e+00 1.714699999999999905e-02 -1.815299999999999900e-02 -3.916656999999999833e+00 3.090847999999999818e+00 -1.802009999999999890e+00 2.482927999999999802e+00 -2.345200000000000062e-02 -6.952099999999999946e-02 1.157780000000000059e-01 -1.707900000000000043e-02 -5.948099999999999915e-02 2.105299999999999880e-02 -3.448999999999999982e-02 3.374210999999999849e+00 -1.226720999999999950e+00 3.048181000000000029e+00 1.827506999999999993e+00 -2.472087000000000145e+00 -1.110300000000000037e-01 3.581678999999999835e+00 2.487645000000000106e+00 -3.097493000000000052e+00 1.833425000000000082e+00 -2.456793999999999922e+00 2.343800000000000050e-02 -3.594238999999999962e+00 1.283938999999999941e+00 -3.111591999999999913e+00 -1.714599999999999902e+00 2.502355999999999803e+00 -3.080753000000000075e+00 -1.730625999999999998e+00 2.520595000000000141e+00 -3.563999999999999894e-03 -1.408659999999999912e-01 3.573080000000000145e-01 -6.169999999999999790e-02 5.175119999999999720e-01 -9.148100000000000676e-02 -1.187470000000000053e-01 3.843630000000000102e-01 1.156299999999999967e-01 -1.318120000000000125e-01 -2.052999999999999964e-02 -1.391209999999999947e-01 1.028089999999999976e-01 1.004639999999999977e-01 5.946900000000000103e-02 9.662700000000000455e-02 4.904129999999999878e-01 3.556299999999999739e-02 -2.058470000000000022e-01 2.146099999999999952e-01 -1.807259999999999978e-01 -2.181480000000000086e-01 4.467280000000000140e-01 -6.531900000000000206e-02 3.926319999999999810e-01 9.291000000000000647e-03 -4.248400000000000093e-02 1.695919999999999928e-01 -2.917850000000000166e-01 -1.620900000000000118e-01 1.845990000000000131e-01 -6.399340000000000028e-01 -2.629999999999999959e-03 3.097460000000000213e-01 -3.803349999999999786e-01 2.668690000000000229e-01 -5.616199999999999665e-02 2.058149999999999979e-01 -4.228069999999999884e-01 3.076900000000000190e-01 1.169779999999999986e-01 -1.863249999999999906e-01 3.645180000000000087e-01 1.728389999999999926e-01 8.588600000000000401e-02